Program Version,EnergyPlus, Version 9.5.0-de239b2e5f, YMD=2022.10.26 18:54
1,5,Environment Title[],Latitude[deg],Longitude[deg],Time Zone[],Elevation[m]
2,8,Day of Simulation[],Month[],Day of Month[],DST Indicator[1=yes 0=no],Hour[],StartMinute[],EndMinute[],DayType
3,5,Cumulative Day of Simulation[],Month[],Day of Month[],DST Indicator[1=yes 0=no],DayType  ! When Daily Report Variables Requested
4,2,Cumulative Days of Simulation[],Month[]  ! When Monthly Report Variables Requested
5,1,Cumulative Days of Simulation[] ! When Run Period Report Variables Requested
6,1,Calendar Year of Simulation[] ! When Annual Report Variables Requested
7,1,Environment,Site Outdoor Air Drybulb Temperature [C] !TimeStep
8,1,ZONE ONE,Zone Windows Total Transmitted Solar Radiation Rate [W] !TimeStep
9,1,ZN001:WALL001,Surface Outside Face Sunlit Fraction [] !TimeStep
10,1,ZN001:WALL001,Surface Outside Face Incident Solar Radiation Rate per Area [W/m2] !TimeStep
11,1,ZN001:WALL001:WIN001,Surface Outside Face Sunlit Fraction [] !TimeStep
12,1,ZN001:WALL001:WIN001,Surface Outside Face Incident Solar Radiation Rate per Area [W/m2] !TimeStep
13,1,ZN001:WALL001:WIN001,Surface Window Transmitted Solar Radiation Rate [W] !TimeStep
14,1,ZN001:WALL001,Surface Inside Face Temperature [C] !TimeStep
15,1,ZN001:WALL001,Surface Outside Face Temperature [C] !TimeStep
16,1,ZN001:WALL001:WIN001,Surface Inside Face Temperature [C] !TimeStep
17,1,ZN001:WALL001:WIN001,Surface Outside Face Temperature [C] !TimeStep
18,1,ZONE ONE,Zone Mean Air Temperature [C] !TimeStep
End of Data Dictionary
1,RUN PERIOD 1,  41.98, -87.92,  -6.00, 201.00
2,1, 1, 1, 0, 1, 0.00,15.00,Tuesday
7,-4.324999999999999
8,0.0
9,0.0
10,0.0
11,0.0
12,0.0
13,0.0
14,5.596744904497837
15,-5.9019935762370478
16,3.326643052778195
17,-4.435879624039217
18,6.04895447842409
2,1, 1, 1, 0, 1,15.00,30.00,Tuesday
7,-6.949999999999999
8,0.0
9,0.0
10,0.0
11,0.0
12,0.0
13,0.0
14,5.415178219547763
15,-8.369477498059054
16,2.7207120027692328
17,-6.523486464304199
18,5.951880253574021
2,1, 1, 1, 0, 1,30.00,45.00,Tuesday
7,-9.575
8,0.0
9,0.0
10,0.0
11,0.0
12,0.0
13,0.0
14,5.2136706383232049
15,-10.844948166831616
16,2.109035971955109
17,-8.617491695815034
18,5.822905300132314
2,1, 1, 1, 0, 1,45.00,60.00,Tuesday
7,-12.2
8,0.0
9,0.0
10,0.0
11,0.0
12,0.0
13,0.0
14,4.996302276309625
15,-13.327035120114596
16,1.4826839463332249
17,-10.719209522261054
18,5.671719816699496
2,1, 1, 1, 0, 2, 0.00,15.00,Tuesday
7,-12.075
8,0.0
9,0.0
10,0.0
11,0.0
12,0.0
13,0.0
14,4.928630244989334
15,-13.128071493563004
16,1.41396133883552
17,-10.56222190876133
18,5.535386624164116
2,1, 1, 1, 0, 2,15.00,30.00,Tuesday
7,-11.95
8,0.0
9,0.0
10,0.0
11,0.0
12,0.0
13,0.0
14,4.8473210676136049
15,-12.950990517959877
16,1.380724120244622
17,-10.41725335983358
18,5.430953669281203
2,1, 1, 1, 0, 2,30.00,45.00,Tuesday
7,-11.825
8,0.0
9,0.0
10,0.0
11,0.0
12,0.0
13,0.0
14,4.783175809464636
15,-12.772745920806094
16,1.3530817439780095
17,-10.271882291562406
18,5.353092280656533
2,1, 1, 1, 0, 2,45.00,60.00,Tuesday
7,-11.7
8,0.0
9,0.0
10,0.0
11,0.0
12,0.0
13,0.0
14,4.730233357349723
15,-12.594579460972634
16,1.3381255231147407
17,-10.123865072840772
18,5.290812620289798
2,1, 1, 1, 0, 3, 0.00,15.00,Tuesday
7,-11.549999999999999
8,0.0
9,0.0
10,0.0
11,0.0
12,0.0
13,0.0
14,4.67900554297884
15,-12.468433280943298
16,1.333622110139629
17,-9.987404079962176
18,5.235233461143522
2,1, 1, 1, 0, 3,15.00,30.00,Tuesday
7,-11.399999999999999
8,0.0
9,0.0
10,0.0
11,0.0
12,0.0
13,0.0
14,4.630905257758879
15,-12.343651356506117
16,1.3240838523341836
17,-9.831678785650638
18,5.181855347371761
2,1, 1, 1, 0, 3,30.00,45.00,Tuesday
7,-11.25
8,0.0
9,0.0
10,0.0
11,0.0
12,0.0
13,0.0
14,4.583760434131068
15,-12.220393136964303
16,1.3231196610961434
17,-9.694200906962522
18,5.129468969522018
2,1, 1, 1, 0, 3,45.00,60.00,Tuesday
7,-11.1
8,0.0
9,0.0
10,0.0
11,0.0
12,0.0
13,0.0
14,4.53702256733594
15,-12.098709303927148
16,1.3159294327449516
17,-9.538886464586995
18,5.077852089207257
2,1, 1, 1, 0, 4, 0.00,15.00,Tuesday
7,-11.1
8,0.0
9,0.0
10,0.0
11,0.0
12,0.0
13,0.0
14,4.4866223620607139
15,-12.070394303043278
16,1.2636885342990354
17,-9.574651267225704
18,5.026166792611662
2,1, 1, 1, 0, 4,15.00,30.00,Tuesday
7,-11.1
8,0.0
9,0.0
10,0.0
11,0.0
12,0.0
13,0.0
14,4.4366006662628199
15,-12.043169296414174
16,1.2145165106485934
17,-9.609588773689552
18,4.974076583306713
2,1, 1, 1, 0, 4,30.00,45.00,Tuesday
7,-11.1
8,0.0
9,0.0
10,0.0
11,0.0
12,0.0
13,0.0
14,4.386408640811624
15,-12.017472922548525
16,1.1657122242696688
17,-9.643604289527048
18,4.921690229741345
2,1, 1, 1, 0, 4,45.00,60.00,Tuesday
7,-11.1
8,0.0
9,0.0
10,0.0
11,0.0
12,0.0
13,0.0
14,4.3361469181498288
15,-11.993174574078463
16,1.1171015878551316
17,-9.67661809768208
18,4.869215676202887
2,1, 1, 1, 0, 5, 0.00,15.00,Tuesday
7,-10.975
8,0.0
9,0.0
10,0.0
11,0.0
12,0.0
13,0.0
14,4.2915157739855
15,-11.871206535350109
16,1.1050502026533878
17,-9.590218058981293
18,4.817851773584842
2,1, 1, 1, 0, 5,15.00,30.00,Tuesday
7,-10.85
8,0.0
9,0.0
10,0.0
11,0.0
12,0.0
13,0.0
14,4.247098307692604
15,-11.749310480945408
16,1.0908894187406305
17,-9.49580466295265
18,4.768083134921206
2,1, 1, 1, 0, 5,30.00,45.00,Tuesday
7,-10.725
8,0.0
9,0.0
10,0.0
11,0.0
12,0.0
13,0.0
14,4.203702855297788
15,-11.627392019466745
16,1.0770095725042098
17,-9.400545342897658
18,4.719685129593865
2,1, 1, 1, 0, 5,45.00,60.00,Tuesday
7,-10.6
8,0.0
9,0.0
10,0.0
11,0.0
12,0.0
13,0.0
14,4.161159762544079
15,-11.505483075237793
16,1.063927339005545
17,-9.30505081354056
18,4.67228231235441
2,1, 1, 1, 0, 6, 0.00,15.00,Tuesday
7,-10.6
8,0.0
9,0.0
10,0.0
11,0.0
12,0.0
13,0.0
14,4.111612764144884
15,-11.506455214094366
16,1.0218432067616164
17,-9.30614951668673
18,4.624274910200865
2,1, 1, 1, 0, 6,15.00,30.00,Tuesday
7,-10.6
8,0.0
9,0.0
10,0.0
11,0.0
12,0.0
13,0.0
14,4.0626984628576239
15,-11.50737102403615
16,0.9807922979623527
17,-9.313927213760735
18,4.57495140385958
2,1, 1, 1, 0, 6,30.00,45.00,Tuesday
7,-10.6
8,0.0
9,0.0
10,0.0
11,0.0
12,0.0
13,0.0
14,4.013248383893615
15,-11.508328970313335
16,0.9399265293641861
17,-9.322294255285954
18,4.5245892940234919
2,1, 1, 1, 0, 6,45.00,60.00,Tuesday
7,-10.6
8,0.0
9,0.0
10,0.0
11,0.0
12,0.0
13,0.0
14,3.9634849574230017
15,-11.50928499616676
16,0.8986984400622191
17,-9.330809379303105
18,4.47370221945543
2,1, 1, 1, 0, 7, 0.00,15.00,Tuesday
7,-10.6
8,0.0
9,0.0
10,0.0
11,0.0
12,0.0
13,0.0
14,3.9157156230212477
15,-11.485886125887289
16,0.8512728554568412
17,-9.358786728094742
18,4.422961529425539
2,1, 1, 1, 0, 7,15.00,30.00,Tuesday
7,-10.6
8,0.0
9,0.0
10,0.0
11,0.0
12,0.0
13,0.0
14,3.8678248461221265
15,-11.463700452048606
16,0.8056865172072776
17,-9.386931514149808
18,4.3727156173725529
2,1, 1, 1, 0, 7,30.00,45.00,Tuesday
7,-10.6
8,0.0
9,0.0
10,0.0
11,0.0
12,0.0
13,0.0
14,3.8202250739015914
15,-11.442643255899677
16,0.7605298653695627
17,-9.414326805695282
18,4.322947918722224
2,1, 1, 1, 0, 7,45.00,60.00,Tuesday
7,-10.6
8,0.0
9,0.0
10,0.0
11,0.0
12,0.0
13,0.0
14,3.772924094924701
15,-11.422647650730492
16,0.7158597151636172
17,-9.44083888624516
18,4.273544976680888
2,1, 1, 1, 0, 8, 0.00,15.00,Tuesday
7,-10.45
8,0.0
9,0.0
10,0.0
11,0.0
12,0.0
13,0.0
14,3.725024289534002
15,-11.373548226411018
16,0.6953206826104861
17,-9.39021303759722
18,4.224174239950677
2,1, 1, 1, 0, 8,15.00,30.00,Tuesday
7,-10.3
8,154.67667376817298
9,1.0
10,22.819555959623899
11,1.0
12,22.819555959623899
13,154.67667376817298
14,3.797089000721086
15,-9.699973511267113
16,1.0003611633720767
17,-9.058866012278486
18,4.192830606473153
2,1, 1, 1, 0, 8,30.00,45.00,Tuesday
7,-10.15
8,759.4640185864273
9,1.0
10,109.75755355442667
11,1.0
12,109.75755355442667
13,759.4640185864273
14,4.196448990592957
15,-3.330257350800128
16,2.2964594307027257
17,-7.92592917434979
18,4.229665380133061
2,1, 1, 1, 0, 8,45.00,60.00,Tuesday
7,-10.0
8,1381.0037869211608
9,1.0
10,195.8764694434918
11,1.0
12,195.8764694434918
13,1381.0037869211608
14,4.70708855488153
15,3.1554970216779858
16,3.732826289968898
17,-6.781515579382699
18,4.34173670305733
2,1, 1, 1, 0, 9, 0.00,15.00,Tuesday
7,-9.725
8,2000.4027330898899
9,1.0
10,278.97248314719988
11,1.0
12,278.97248314719988
13,2000.4027330898899
14,5.123069974595907
15,8.32978321867361
16,5.220587574976662
17,-5.757362855940187
18,4.506872124717209
2,1, 1, 1, 0, 9,15.00,30.00,Tuesday
7,-9.45
8,2653.320201414349
9,1.0
10,364.91995730569456
11,1.0
12,364.91995730569456
13,2653.320201414349
14,5.560989885723334
15,13.408099490626818
16,6.655424802369112
17,-4.7292266219855609
18,4.716907992860118
2,1, 1, 1, 0, 9,30.00,45.00,Tuesday
7,-9.175
8,3085.2879176042376
9,1.0
10,420.35879993239237
11,1.0
12,420.35879993239237
13,3085.2879176042376
14,5.87108336998703
15,16.165715438946248
16,7.621397550897655
17,-4.0938233443883409
18,4.95189475246514
2,1, 1, 1, 0, 9,45.00,60.00,Tuesday
7,-8.9
8,3533.7057043678
9,1.0
10,478.00138373643099
11,1.0
12,478.00138373643099
13,3533.7057043678
14,6.234524362324598
15,19.160475813551807
16,8.582303218006928
17,-3.4367256045167098
18,5.201253579641588
2,1, 1, 1, 0,10, 0.00,15.00,Tuesday
7,-8.350000000000002
8,3991.597294153641
9,1.0
10,536.9185644770597
11,1.0
12,536.9185644770597
13,3991.597294153641
14,6.544575247988116
15,20.277115502135599
16,9.573251135115016
17,-2.7397910474506945
18,5.4649665631930299
2,1, 1, 1, 0,10,15.00,30.00,Tuesday
7,-7.800000000000001
8,4465.307663114688
9,1.0
10,598.0969199229219
11,1.0
12,598.0969199229219
13,4465.307663114688
14,6.883290813341951
15,21.52940534579426
16,10.580243130661643
17,-2.045075482473237
18,5.749423204885724
2,1, 1, 1, 0,10,30.00,45.00,Tuesday
7,-7.25
8,4776.067163208125
9,1.0
10,637.6133352894237
11,1.0
12,637.6133352894237
13,4776.067163208125
14,7.146164032707505
15,21.588463090732046
16,11.309962481442824
17,-1.5557308113091609
18,6.047283741562637
2,1, 1, 1, 0,10,45.00,60.00,Tuesday
7,-6.7
8,5082.2493409234789
9,1.0
10,676.6412284283772
11,1.0
12,676.6412284283772
13,5082.2493409234789
14,7.434397992335269
15,21.748204222350336
16,12.013761476995058
17,-1.0694657197751668
18,6.346737878411895
2,1, 1, 1, 0,11, 0.00,15.00,Tuesday
7,-6.275
8,5382.861284173889
9,1.0
10,715.0112779846514
11,1.0
12,715.0112779846514
13,5382.861284173889
14,7.800007177730592
15,23.846225493182556
16,12.759123510305699
17,-0.35901666039234217
18,6.464672146764469
2,1, 1, 1, 0,11,15.00,30.00,Tuesday
7,-5.85
8,5676.397195345273
9,1.0
10,752.5077794605232
11,1.0
12,752.5077794605232
13,5676.397195345273
14,8.10703534698187
15,25.780225696880643
16,13.471658110381725
17,0.3278930431571325
18,6.707042191464867
2,1, 1, 1, 0,11,30.00,45.00,Tuesday
7,-5.425
8,5589.1587884420709
9,1.0
10,742.5988714321785
11,1.0
12,742.5988714321785
13,5589.1587884420709
14,8.249791093679339
15,25.631321271797725
16,13.582714597401719
17,0.6143458869614733
18,6.880517303597168
2,1, 1, 1, 0,11,45.00,60.00,Tuesday
7,-5.0
8,5464.505279106343
9,1.0
10,727.8169025450712
11,1.0
12,727.8169025450712
13,5464.505279106343
14,8.459177519369224
15,25.40370068645019
16,13.638652659319064
17,0.8746966028096495
18,7.154808027788505
2,1, 1, 1, 0,12, 0.00,15.00,Tuesday
7,-4.575
8,5250.139011853675
9,1.0
10,700.3759009170325
11,1.0
12,700.3759009170325
13,5250.139011853675
14,8.560937010940558
15,24.660136602581767
16,13.540198487985606
17,1.0770234161605004
18,7.295461064405508
2,1, 1, 1, 0,12,15.00,30.00,Tuesday
7,-4.15
8,5091.158693257649
9,1.0
10,681.6705029034473
11,1.0
12,681.6705029034473
13,5091.158693257649
14,8.73838099412986
15,24.331011766231769
16,13.536469478976983
17,1.348208664522474
18,7.523884543101169
2,1, 1, 1, 0,12,30.00,45.00,Tuesday
7,-3.7249999999999998
8,4469.613315119975
9,1.0
10,602.01865277251
11,1.0
12,602.01865277251
13,4469.613315119975
14,8.633545655368895
15,21.302085240934767
16,12.788187168796299
17,1.140874688970598
18,7.770471529756912
2,1, 1, 1, 0,12,45.00,60.00,Tuesday
7,-3.3
8,3650.389339433298
9,1.0
10,493.55004396206007
11,1.0
12,493.55004396206007
13,3650.389339433298
14,8.493244795593724
15,17.12594757735924
16,11.621505194572365
17,0.6893459951480736
18,7.940173537442331
2,1, 1, 1, 0,13, 0.00,15.00,Tuesday
7,-3.0249999999999996
8,3014.1126501802734
9,1.0
10,412.335026418112
11,1.0
12,412.335026418112
13,3014.1126501802734
14,8.398313609446263
15,14.282303827386393
16,10.70947935091408
17,0.38576631004031017
18,8.021645986135099
2,1, 1, 1, 0,13,15.00,30.00,Tuesday
7,-2.75
8,2207.5599913143216
9,1.0
10,305.94037763660148
11,1.0
12,305.94037763660148
13,2207.5599913143216
14,8.123567676643603
15,10.109776126179348
16,9.419974488892195
17,-0.1442095423557248
18,8.024199233802096
2,1, 1, 1, 0,13,30.00,45.00,Tuesday
7,-2.475
8,2015.4241273989674
9,1.0
10,281.0763483922329
11,1.0
12,281.0763483922329
13,2015.4241273989674
14,8.11145128953958
15,9.59777772852003
16,9.120332091386843
17,-0.023637326582900188
18,7.995468883151693
2,1, 1, 1, 0,13,45.00,60.00,Tuesday
7,-2.2
8,1827.2907190822589
9,1.0
10,256.7721209415886
11,1.0
12,256.7721209415886
13,1827.2907190822589
14,8.080431124628405
15,8.990540599460117
16,8.884915243152648
17,0.12014241963396444
18,7.966797700886738
2,1, 1, 1, 0,14, 0.00,15.00,Tuesday
7,-1.9250000000000003
8,1492.7106735242788
9,1.0
10,210.73276284570657
11,1.0
12,210.73276284570657
13,1492.7106735242788
14,7.946337424338448
15,7.443583519028043
16,8.3215905177874
17,0.044770687501682008
18,7.9381922596658909
2,1, 1, 1, 0,14,15.00,30.00,Tuesday
7,-1.6500000000000002
8,1326.0089176326254
9,1.0
10,189.38488290342594
11,1.0
12,189.38488290342594
13,1326.0089176326254
14,7.913047427225168
15,7.037133757990173
16,8.055720981649472
17,0.16376365129542592
18,7.911730693439856
2,1, 1, 1, 0,14,30.00,45.00,Tuesday
7,-1.375
8,1264.6372426765425
9,1.0
10,179.3940297802914
11,1.0
12,179.3940297802914
13,1264.6372426765425
14,7.907610840196697
15,7.161566759691758
16,8.000441624161568
17,0.3975017708081623
18,7.889703131116977
2,1, 1, 1, 0,14,45.00,60.00,Tuesday
7,-1.1
8,1202.564429987972
9,1.0
10,169.43349014176136
11,1.0
12,169.43349014176136
13,1202.564429987972
14,7.898165979317419
15,7.26091269977626
16,7.937987571616077
17,0.6292873185162762
18,7.871919349612915
2,1, 1, 1, 0,15, 0.00,15.00,Tuesday
7,-1.1
8,1265.7745073459835
9,1.0
10,178.15692317953907
11,1.0
12,178.15692317953907
13,1265.7745073459835
14,7.960060596045897
15,8.078938586717735
16,8.082478992614256
17,0.7653521158027843
18,7.861764530616549
2,1, 1, 1, 0,15,15.00,30.00,Tuesday
7,-1.1
8,1189.1603867538098
9,1.0
10,166.40516310952945
11,1.0
12,166.40516310952945
13,1189.1603867538098
14,7.909948369809978
15,7.715986947460236
16,7.932948835043476
17,0.7083921382255767
18,7.854174679655888
2,1, 1, 1, 0,15,30.00,45.00,Tuesday
7,-1.1
8,1002.6786716502289
9,1.0
10,140.8967369711617
11,1.0
12,140.8967369711617
13,1002.6786716502289
14,7.793152000190093
15,6.5094056577714529
16,7.518865764812972
17,0.4769127868245846
18,7.839654555460499
2,1, 1, 1, 0,15,45.00,60.00,Tuesday
7,-1.1
8,825.1228302219245
9,1.0
10,116.57355796743004
11,1.0
12,116.57355796743004
13,825.1228302219245
14,7.679292018593796
15,5.301328936142469
16,7.1216524327711
17,0.24952547222324029
18,7.8071065112480249
2,1, 1, 1, 0,16, 0.00,15.00,Tuesday
7,-1.1
8,654.8645552800388
9,1.0
10,93.14939272689483
11,1.0
12,93.14939272689483
13,654.8645552800388
14,7.578512484540346
15,4.251510039424621
16,6.7706220832426429
17,0.09664381825643886
18,7.754562177050629
2,1, 1, 1, 0,16,15.00,30.00,Tuesday
7,-1.1
8,406.5411025204561
9,1.0
10,57.94047897402063
11,1.0
12,57.94047897402063
13,406.5411025204561
14,7.386874120148033
15,2.127593332516837
16,6.238452397389608
17,-0.20674556736548767
18,7.6750545054501819
2,1, 1, 1, 0,16,30.00,45.00,Tuesday
7,-1.1
8,315.20215346024716
9,1.0
10,45.38251793443488
11,1.0
12,45.38251793443488
13,315.20215346024716
14,7.311600414773827
15,1.517455029948857
16,6.008969313533896
17,-0.26563294978944898
18,7.581138656743295
2,1, 1, 1, 0,16,45.00,60.00,Tuesday
7,-1.1
8,220.03198535703104
9,1.0
10,32.02625108222755
11,1.0
12,32.02625108222755
13,220.03198535703104
14,7.197154748268625
15,0.6546002721510013
16,5.791254146421352
17,-0.3292205541471276
18,7.487071880727194
2,1, 1, 1, 0,17, 0.00,15.00,Tuesday
7,-1.1
8,120.68723579144842
9,1.0
10,17.762198626050539
11,1.0
12,17.762198626050539
13,120.68723579144842
14,7.057582810372013
15,-0.5959822263278465
16,5.5180178765242549
17,-0.5059758488976058
18,7.393373262762014
2,1, 1, 1, 0,17,15.00,30.00,Tuesday
7,-1.1
8,0.0
9,0.0
10,0.0
11,0.0
12,0.0
13,0.0
14,6.868614592128503
15,-2.4329167007089826
16,5.17304555856515
17,-0.7893166889676877
18,7.288562740186137
2,1, 1, 1, 0,17,30.00,45.00,Tuesday
7,-1.1
8,0.0
9,0.0
10,0.0
11,0.0
12,0.0
13,0.0
14,6.812180278696501
15,-2.568465604888494
16,5.085106543966958
17,-0.7895487274427069
18,7.186704663268323
2,1, 1, 1, 0,17,45.00,60.00,Tuesday
7,-1.1
8,0.0
9,0.0
10,0.0
11,0.0
12,0.0
13,0.0
14,6.7404020460601858
15,-2.7588597709034428
16,5.038098236893006
17,-0.7734382325228921
18,7.101023604180956
2,1, 1, 1, 0,18, 0.00,15.00,Tuesday
7,-1.25
8,0.0
9,0.0
10,0.0
11,0.0
12,0.0
13,0.0
14,6.680097582911707
15,-2.906771848436536
16,4.94877706040711
17,-0.9126754907849772
18,7.032262601931244
2,1, 1, 1, 0,18,15.00,30.00,Tuesday
7,-1.4
8,0.0
9,0.0
10,0.0
11,0.0
12,0.0
13,0.0
14,6.625073836040577
15,-3.0591923508657437
16,4.873352517838157
17,-1.043475933337504
18,6.975293155392226
2,1, 1, 1, 0,18,30.00,45.00,Tuesday
7,-1.5499999999999999
8,0.0
9,0.0
10,0.0
11,0.0
12,0.0
13,0.0
14,6.574271844509349
15,-3.2111564107857646
16,4.802261223486028
17,-1.1734354897130289
18,6.924815973088855
2,1, 1, 1, 0,18,45.00,60.00,Tuesday
7,-1.7
8,0.0
9,0.0
10,0.0
11,0.0
12,0.0
13,0.0
14,6.525505370195902
15,-3.3632891680315879
16,4.734049174194979
17,-1.3026739474181568
18,6.877468599751477
2,1, 1, 1, 0,19, 0.00,15.00,Tuesday
7,-1.825
8,0.0
9,0.0
10,0.0
11,0.0
12,0.0
13,0.0
14,6.501658585646523
15,-3.216919482825694
16,4.661685841245799
17,-1.4455940474866794
18,6.835077652882692
2,1, 1, 1, 0,19,15.00,30.00,Tuesday
7,-1.9500000000000002
8,0.0
9,0.0
10,0.0
11,0.0
12,0.0
13,0.0
14,6.476729711621585
15,-3.151769330114103
16,4.601428697861081
17,-1.5818330884151238
18,6.799414972316324
2,1, 1, 1, 0,19,30.00,45.00,Tuesday
7,-2.075
8,0.0
9,0.0
10,0.0
11,0.0
12,0.0
13,0.0
14,6.447329548583706
15,-3.226010588694447
16,4.552482485626683
17,-1.694745336738265
18,6.7690460838811739
2,1, 1, 1, 0,19,45.00,60.00,Tuesday
7,-2.2
8,0.0
9,0.0
10,0.0
11,0.0
12,0.0
13,0.0
14,6.42084426591225
15,-3.2052283817095348
16,4.496628162148909
17,-1.8272883618607239
18,6.7409301308639579
2,1, 1, 1, 0,20, 0.00,15.00,Tuesday
7,-1.9250000000000003
8,0.0
9,0.0
10,0.0
11,0.0
12,0.0
13,0.0
14,6.410142331603606
15,-2.9044144658161765
16,4.537583928514891
17,-1.6198109822847756
18,6.71550550676591
2,1, 1, 1, 0,20,15.00,30.00,Tuesday
7,-1.6500000000000002
8,0.0
9,0.0
10,0.0
11,0.0
12,0.0
13,0.0
14,6.399945710972612
15,-2.6065544786398235
16,4.5774683201714769
17,-1.4007430720611183
18,6.6932958891928
2,1, 1, 1, 0,20,30.00,45.00,Tuesday
7,-1.375
8,0.0
9,0.0
10,0.0
11,0.0
12,0.0
13,0.0
14,6.392496131952308
15,-2.309964796951913
16,4.618828659488656
17,-1.1800243876027708
18,6.674043300145966
2,1, 1, 1, 0,20,45.00,60.00,Tuesday
7,-1.1
8,0.0
9,0.0
10,0.0
11,0.0
12,0.0
13,0.0
14,6.385598535900445
15,-2.0146625533232478
16,4.662481286235447
17,-0.957386144755958
18,6.65701632772551
2,1, 1, 1, 0,21, 0.00,15.00,Tuesday
7,-1.25
8,0.0
9,0.0
10,0.0
11,0.0
12,0.0
13,0.0
14,6.336968970177689
15,-2.2942829852848067
16,4.620428745297488
17,-1.0444127332959284
18,6.635333405016299
2,1, 1, 1, 0,21,15.00,30.00,Tuesday
7,-1.4
8,0.0
9,0.0
10,0.0
11,0.0
12,0.0
13,0.0
14,6.2899916908461439
15,-2.5100156896953287
16,4.565749388935501
17,-1.1484117599234197
18,6.6043326540060349
2,1, 1, 1, 0,21,30.00,45.00,Tuesday
7,-1.5499999999999999
8,0.0
9,0.0
10,0.0
11,0.0
12,0.0
13,0.0
14,6.229590507749436
15,-2.852354045700629
16,4.514552077330222
17,-1.2326968162384447
18,6.563219604275151
2,1, 1, 1, 0,21,45.00,60.00,Tuesday
7,-1.7
8,0.0
9,0.0
10,0.0
11,0.0
12,0.0
13,0.0
14,6.163907827126182
15,-3.3019803992808898
16,4.463862207185116
17,-1.2918997867634517
18,6.5142681454505519
2,1, 1, 1, 0,22, 0.00,15.00,Tuesday
7,-1.5499999999999999
8,0.0
9,0.0
10,0.0
11,0.0
12,0.0
13,0.0
14,6.166303597710686
15,-2.8171372890174188
16,4.436250888146105
17,-1.248153644915078
18,6.470992862297062
2,1, 1, 1, 0,22,15.00,30.00,Tuesday
7,-1.4
8,0.0
9,0.0
10,0.0
11,0.0
12,0.0
13,0.0
14,6.15879575058626
15,-2.4888480101274279
16,4.442804220573294
17,-1.1693050555507512
18,6.440676707517538
2,1, 1, 1, 0,22,30.00,45.00,Tuesday
7,-1.25
8,0.0
9,0.0
10,0.0
11,0.0
12,0.0
13,0.0
14,6.150212087569869
15,-2.2695781334080769
16,4.45702320882782
17,-1.0679902393752628
18,6.421040389416832
2,1, 1, 1, 0,22,45.00,60.00,Tuesday
7,-1.1
8,0.0
9,0.0
10,0.0
11,0.0
12,0.0
13,0.0
14,6.145605942868196
15,-1.9885355975144253
16,4.471639151892134
17,-0.9695732401723376
18,6.406820491631702
2,1, 1, 1, 0,23, 0.00,15.00,Tuesday
7,-1.25
8,0.0
9,0.0
10,0.0
11,0.0
12,0.0
13,0.0
14,6.096490017205297
15,-2.29189284675177
16,4.380880195445286
17,-1.244861513808189
18,6.387468076442233
2,1, 1, 1, 0,23,15.00,30.00,Tuesday
7,-1.4
8,0.0
9,0.0
10,0.0
11,0.0
12,0.0
13,0.0
14,6.050385340226872
15,-2.596494546385891
16,4.278066465272218
17,-1.5378521694972279
18,6.357867242411431
2,1, 1, 1, 0,23,30.00,45.00,Tuesday
7,-1.5499999999999999
8,0.0
9,0.0
10,0.0
11,0.0
12,0.0
13,0.0
14,5.999550519897064
15,-2.9017706048965445
16,4.173357495762957
17,-1.833395616710959
18,6.319203266440071
2,1, 1, 1, 0,23,45.00,60.00,Tuesday
7,-1.7
8,0.0
9,0.0
10,0.0
11,0.0
12,0.0
13,0.0
14,5.944830587517994
15,-3.207387749028044
16,4.065513717056604
17,-2.1270860231933286
18,6.274495824270408
2,1, 1, 1, 0,24, 0.00,15.00,Tuesday
7,-1.7
8,0.0
9,0.0
10,0.0
11,0.0
12,0.0
13,0.0
14,5.906197082780923
15,-3.261454820621319
16,4.015772625077034
17,-2.190355572045803
18,6.22933157749617
2,1, 1, 1, 0,24,15.00,30.00,Tuesday
7,-1.7
8,0.0
9,0.0
10,0.0
11,0.0
12,0.0
13,0.0
14,5.865436993388085
15,-3.3161358341345386
16,3.970040774348604
17,-2.25182203860885
18,6.186681081508371
2,1, 1, 1, 0,24,30.00,45.00,Tuesday
7,-1.7
8,0.0
9,0.0
10,0.0
11,0.0
12,0.0
13,0.0
14,5.825737635268979
15,-3.3707090338322409
16,3.9241413454668079
17,-2.3132763360362107
18,6.146530244768321
2,1, 1, 1, 0,24,45.00,60.00,Tuesday
7,-1.7
8,0.0
9,0.0
10,0.0
11,0.0
12,0.0
13,0.0
14,5.786840488676168
15,-3.4252847585524019
16,3.879141374027654
17,-2.3744324065442017
18,6.107866257029413
End of Data
 Number of Records Written=        1152
