Program Version,EnergyPlus, Version 9.5.0-de239b2e5f, YMD=2022.10.26 18:54
1,5,Environment Title[],Latitude[deg],Longitude[deg],Time Zone[],Elevation[m]
2,8,Day of Simulation[],Month[],Day of Month[],DST Indicator[1=yes 0=no],Hour[],StartMinute[],EndMinute[],DayType
3,5,Cumulative Day of Simulation[],Month[],Day of Month[],DST Indicator[1=yes 0=no],DayType  ! When Daily Report Variables Requested
4,2,Cumulative Days of Simulation[],Month[]  ! When Monthly Report Variables Requested
5,1,Cumulative Days of Simulation[] ! When Run Period Report Variables Requested
6,1,Calendar Year of Simulation[] ! When Annual Report Variables Requested
7,1,Environment,Site Outdoor Air Drybulb Temperature [C] !TimeStep
8,1,ZONE ONE,Zone Windows Total Transmitted Solar Radiation Rate [W] !TimeStep
9,1,ZN001:WALL001,Surface Outside Face Sunlit Fraction [] !TimeStep
10,1,ZN001:WALL001,Surface Outside Face Incident Solar Radiation Rate per Area [W/m2] !TimeStep
11,1,ZN001:WALL001:WIN001,Surface Outside Face Sunlit Fraction [] !TimeStep
12,1,ZN001:WALL001:WIN001,Surface Outside Face Incident Solar Radiation Rate per Area [W/m2] !TimeStep
13,1,ZN001:WALL001:WIN001,Surface Window Transmitted Solar Radiation Rate [W] !TimeStep
14,1,ZN001:WALL001,Surface Inside Face Temperature [C] !TimeStep
15,1,ZN001:WALL001,Surface Outside Face Temperature [C] !TimeStep
16,1,ZN001:WALL001:WIN001,Surface Inside Face Temperature [C] !TimeStep
17,1,ZN001:WALL001:WIN001,Surface Outside Face Temperature [C] !TimeStep
18,1,ZONE ONE,Zone Mean Air Temperature [C] !TimeStep
End of Data Dictionary
1,RUN PERIOD 1,  41.98, -87.92,  -6.00, 201.00
2,1, 1, 1, 0, 1, 0.00,15.00,Tuesday
7,-4.324999999999999
8,0.0
9,0.0
10,0.0
11,0.0
12,0.0
13,0.0
14,6.061826388060109
15,-5.893535290075587
16,3.7117189887156316
17,-4.357293845563277
18,6.525712722275005
2,1, 1, 1, 0, 1,15.00,30.00,Tuesday
7,-6.949999999999999
8,0.0
9,0.0
10,0.0
11,0.0
12,0.0
13,0.0
14,5.879484056217302
15,-8.36093893133526
16,3.1068424773295648
17,-6.444880780742892
18,6.427134624388006
2,1, 1, 1, 0, 1,30.00,45.00,Tuesday
7,-9.575
8,0.0
9,0.0
10,0.0
11,0.0
12,0.0
13,0.0
14,5.677143825838523
15,-10.836314293053415
16,2.4959545601508354
17,-8.538808644000824
18,6.296781599392026
2,1, 1, 1, 0, 1,45.00,60.00,Tuesday
7,-12.2
8,0.0
9,0.0
10,0.0
11,0.0
12,0.0
13,0.0
14,5.458943984160182
15,-13.318310587013104
16,1.8702743235751314
17,-10.640403546316805
18,6.144382762737642
2,1, 1, 1, 0, 2, 0.00,15.00,Tuesday
7,-12.075
8,0.0
9,0.0
10,0.0
11,0.0
12,0.0
13,0.0
14,5.389812566259654
15,-13.119279373086373
16,1.8005793994327633
17,-10.482431856737435
18,6.006990294474774
2,1, 1, 1, 0, 2,15.00,30.00,Tuesday
7,-11.95
8,0.0
9,0.0
10,0.0
11,0.0
12,0.0
13,0.0
14,5.307168538268907
15,-12.942226918518509
16,1.7659789711385088
17,-10.337814232421409
18,5.901542196720701
2,1, 1, 1, 0, 2,30.00,45.00,Tuesday
7,-11.825
8,0.0
9,0.0
10,0.0
11,0.0
12,0.0
13,0.0
14,5.241709419788324
15,-12.764014727215434
16,1.7370443246474566
17,-10.192785496481975
18,5.822596023892742
2,1, 1, 1, 0, 2,45.00,60.00,Tuesday
7,-11.7
8,0.0
9,0.0
10,0.0
11,0.0
12,0.0
13,0.0
14,5.187428088839352
15,-12.585882832971633
16,1.7208010874688285
17,-10.045113475121696
18,5.759116892690874
2,1, 1, 1, 0, 3, 0.00,15.00,Tuesday
7,-11.549999999999999
8,0.0
9,0.0
10,0.0
11,0.0
12,0.0
13,0.0
14,5.1348603642364349
15,-12.459528596318384
16,1.715349366824853
17,-9.907805925013463
18,5.7022427104339699
2,1, 1, 1, 0, 3,15.00,30.00,Tuesday
7,-11.399999999999999
8,0.0
9,0.0
10,0.0
11,0.0
12,0.0
13,0.0
14,5.085385389599456
15,-12.334529540519452
16,1.7047932531520474
17,-9.750996645853605
18,5.647510886450212
2,1, 1, 1, 0, 3,30.00,45.00,Tuesday
7,-11.25
8,0.0
9,0.0
10,0.0
11,0.0
12,0.0
13,0.0
14,5.03684860174414
15,-12.211043164862355
16,1.7028323508548056
17,-9.612631820293359
18,5.593743858661981
2,1, 1, 1, 0, 3,45.00,60.00,Tuesday
7,-11.1
8,0.0
9,0.0
10,0.0
11,0.0
12,0.0
13,0.0
14,4.988713320192635
15,-12.08911960450761
16,1.6946015842623866
17,-9.45618801433693
18,5.540735466542396
2,1, 1, 1, 0, 4, 0.00,15.00,Tuesday
7,-11.1
8,0.0
9,0.0
10,0.0
11,0.0
12,0.0
13,0.0
14,4.936894408227389
15,-12.061106626411489
16,1.640771776586007
17,-9.493540155939172
18,5.487639864868608
2,1, 1, 1, 0, 4,15.00,30.00,Tuesday
7,-11.1
8,0.0
9,0.0
10,0.0
11,0.0
12,0.0
13,0.0
14,4.885455082522083
15,-12.03417127559334
16,1.590091870297556
17,-9.529963536981711
18,5.434121597790536
2,1, 1, 1, 0, 4,30.00,45.00,Tuesday
7,-11.1
8,0.0
9,0.0
10,0.0
11,0.0
12,0.0
13,0.0
14,4.833840253485201
15,-12.008750297607526
16,1.5397819351444469
17,-9.565433519276042
18,5.380297713770027
2,1, 1, 1, 0, 4,45.00,60.00,Tuesday
7,-11.1
8,0.0
9,0.0
10,0.0
11,0.0
12,0.0
13,0.0
14,4.7821552118266938
15,-11.984713549710735
16,1.4896693564006683
17,-9.599870472360522
18,5.326383711292013
2,1, 1, 1, 0, 5, 0.00,15.00,Tuesday
7,-10.975
8,0.0
9,0.0
10,0.0
11,0.0
12,0.0
13,0.0
14,4.736094745757223
15,-11.862779473306942
16,1.4763484057542087
17,-9.513750224974502
18,5.273590825489422
2,1, 1, 1, 0, 5,15.00,30.00,Tuesday
7,-10.85
8,0.0
9,0.0
10,0.0
11,0.0
12,0.0
13,0.0
14,4.690252984899401
15,-11.740914589797537
16,1.4608800325553376
17,-9.41958943845043
18,5.222404674751536
2,1, 1, 1, 0, 5,30.00,45.00,Tuesday
7,-10.725
8,0.0
9,0.0
10,0.0
11,0.0
12,0.0
13,0.0
14,4.645442369505414
15,-11.619027068698891
16,1.4456976577948809
17,-9.32458093180253
18,5.172595876445282
2,1, 1, 1, 0, 5,45.00,60.00,Tuesday
7,-10.6
8,0.0
9,0.0
10,0.0
11,0.0
12,0.0
13,0.0
14,4.601490002340401
15,-11.497149015546054
16,1.431320081043566
17,-9.22933597060728
18,5.123785407877823
2,1, 1, 1, 0, 6, 0.00,15.00,Tuesday
7,-10.6
8,0.0
9,0.0
10,0.0
11,0.0
12,0.0
13,0.0
14,4.550574060708233
15,-11.49814380586172
16,1.3880323089268814
17,-9.23070976497354
18,5.074369760990137
2,1, 1, 1, 0, 6,15.00,30.00,Tuesday
7,-10.6
8,0.0
9,0.0
10,0.0
11,0.0
12,0.0
13,0.0
14,4.500293139414029
15,-11.499085516693248
16,1.3457947148860968
17,-9.238722923687647
18,5.023640547272445
2,1, 1, 1, 0, 6,30.00,45.00,Tuesday
7,-10.6
8,0.0
9,0.0
10,0.0
11,0.0
12,0.0
13,0.0
14,4.4494780379729079
15,-11.500069281269813
16,1.3037433675062858
17,-9.247319439449769
18,4.971880170653848
2,1, 1, 1, 0, 6,45.00,60.00,Tuesday
7,-10.6
8,0.0
9,0.0
10,0.0
11,0.0
12,0.0
13,0.0
14,4.398354561154479
15,-11.501050947081295
16,1.2613325640689937
17,-9.256062540357619
18,4.919604488126948
2,1, 1, 1, 0, 7, 0.00,15.00,Tuesday
7,-10.6
8,0.0
9,0.0
10,0.0
11,0.0
12,0.0
13,0.0
14,4.349204493392381
15,-11.477893761727169
16,1.2124190886859197
17,-9.285337408214332
18,4.86747896469646
2,1, 1, 1, 0, 7,15.00,30.00,Tuesday
7,-10.6
8,0.0
9,0.0
10,0.0
11,0.0
12,0.0
13,0.0
14,4.299939618283212
15,-11.455937302868165
16,1.1653858934670325
17,-9.314809478844382
18,4.815848461786887
2,1, 1, 1, 0, 7,30.00,45.00,Tuesday
7,-10.6
8,0.0
9,0.0
10,0.0
11,0.0
12,0.0
13,0.0
14,4.250969135101813
15,-11.435098270542266
16,1.1187965737227046
17,-9.343503843262625
18,4.764696074295115
2,1, 1, 1, 0, 7,45.00,60.00,Tuesday
7,-10.6
8,0.0
9,0.0
10,0.0
11,0.0
12,0.0
13,0.0
14,4.2022999435877079
15,-11.415310373271291
16,1.0727040537335029
17,-9.37128204623167
18,4.713909355639474
2,1, 1, 1, 0, 8, 0.00,15.00,Tuesday
7,-10.45
8,0.0
9,0.0
10,0.0
11,0.0
12,0.0
13,0.0
14,4.153069123499485
15,-11.366049701053257
16,1.0513089112344006
17,-9.319848248307722
18,4.663167809493013
2,1, 1, 1, 0, 8,15.00,30.00,Tuesday
7,-10.3
8,161.35837051552523
9,1.0
10,22.819555959623899
11,1.0
12,22.819555959623899
13,161.35837051552523
14,4.224903108970823
15,-9.692404734745593
16,1.3513292444023364
17,-8.99033913112379
18,4.630789498866742
2,1, 1, 1, 0, 8,30.00,45.00,Tuesday
7,-10.15
8,792.271216589312
9,1.0
10,109.75755355442667
11,1.0
12,109.75755355442667
13,792.271216589312
14,4.627052155983992
15,-3.3215799489408939
16,2.6292508503393607
17,-7.868924632682706
18,4.667871769857178
2,1, 1, 1, 0, 8,45.00,60.00,Tuesday
7,-10.0
8,1440.6601545316508
9,1.0
10,195.8764694434918
11,1.0
12,195.8764694434918
13,1440.6601545316508
14,5.138760517873298
15,3.1609450015201756
16,4.04617601088637
17,-6.7474382447127259
18,4.781733485036855
2,1, 1, 1, 0, 9, 0.00,15.00,Tuesday
7,-9.725
8,2086.815791433384
9,1.0
10,278.97248314719988
11,1.0
12,278.97248314719988
13,2086.815791433384
14,5.56506178775673
15,8.337577308154556
16,5.5173676365916439
17,-5.725782681447754
18,4.949339898657202
2,1, 1, 1, 0, 9,15.00,30.00,Tuesday
7,-9.45
8,2767.9378779303476
9,1.0
10,364.91995730569456
11,1.0
12,364.91995730569456
13,2767.9378779303476
14,6.008353792778127
15,13.414899308233318
16,6.944973393285807
17,-4.709680502203923
18,5.16212628200639
2,1, 1, 1, 0, 9,30.00,45.00,Tuesday
7,-9.175
8,3218.565662333929
9,1.0
10,420.35879993239237
11,1.0
12,420.35879993239237
13,3218.565662333929
14,6.323255999837209
15,16.172363825860363
16,7.90563067069445
17,-4.081779682561091
18,5.400054511373793
2,1, 1, 1, 0, 9,45.00,60.00,Tuesday
7,-8.9
8,3686.3541246726838
9,1.0
10,478.00138373643099
11,1.0
12,478.00138373643099
13,3686.3541246726838
14,6.692154960832989
15,19.166984652609174
16,8.860164832646092
17,-3.432540325666423
18,5.652525064551454
2,1, 1, 1, 0,10, 0.00,15.00,Tuesday
7,-8.350000000000002
8,4164.025637772173
9,1.0
10,536.9185644770597
11,1.0
12,536.9185644770597
13,4164.025637772173
14,7.008200112282865
15,20.2831435551069
16,9.845104122946396
17,-2.7430115883032615
18,5.919518996082601
2,1, 1, 1, 0,10,15.00,30.00,Tuesday
7,-7.800000000000001
8,4658.1992669907199
9,1.0
10,598.0969199229219
11,1.0
12,598.0969199229219
13,4658.1992669907199
14,7.353332756301594
15,21.535077774291915
16,10.846242572966844
17,-2.0550009701374849
18,6.206952596750471
2,1, 1, 1, 0,10,30.00,45.00,Tuesday
7,-7.25
8,4982.382903318478
9,1.0
10,637.6133352894237
11,1.0
12,637.6133352894237
13,4982.382903318478
14,7.621808023491721
15,21.593794192645473
16,11.57348314273537
17,-1.5693556994098117
18,6.328012678521965
2,1, 1, 1, 0,10,45.00,60.00,Tuesday
7,-6.7
8,5301.7914868729289
9,1.0
10,676.6412284283772
11,1.0
12,676.6412284283772
13,5301.7914868729289
14,7.869618730824181
15,21.75198778098261
16,12.249301167416548
17,-1.0902372770010516
18,6.565601773936984
2,1, 1, 1, 0,11, 0.00,15.00,Tuesday
7,-6.275
8,5615.3892139187669
9,1.0
10,715.0112779846514
11,1.0
12,715.0112779846514
13,5615.3892139187669
14,8.166119028346487
15,23.848796860183474
16,12.936951563754917
17,-0.39172954924708849
18,6.749025542048216
2,1, 1, 1, 0,11,15.00,30.00,Tuesday
7,-5.85
8,5921.605239651241
9,1.0
10,752.5077794605232
11,1.0
12,752.5077794605232
13,5921.605239651241
14,8.527360479018354
15,25.785525603985165
16,13.650397221342019
17,0.29205028128518509
18,7.1777601288748429
2,1, 1, 1, 0,11,30.00,45.00,Tuesday
7,-5.425
8,5830.598322830478
9,1.0
10,742.5988714321785
11,1.0
12,742.5988714321785
13,5830.598322830478
14,8.803856676618672
15,25.63906677882972
16,13.853609972141385
17,0.5932193058864641
18,7.556358469984588
2,1, 1, 1, 0,11,45.00,60.00,Tuesday
7,-5.0
8,5700.560052320596
9,1.0
10,727.8169025450712
11,1.0
12,727.8169025450712
13,5700.560052320596
14,9.043426903884898
15,25.409994541647696
16,13.970849910523384
17,0.8633778337310787
18,7.877355340112219
2,1, 1, 1, 0,12, 0.00,15.00,Tuesday
7,-4.575
8,5476.933627376162
9,1.0
10,700.3759009170325
11,1.0
12,700.3759009170325
13,5476.933627376162
14,9.212255469868677
15,24.667814242613838
16,13.924542694758202
17,1.075263225173103
18,8.147620269763243
2,1, 1, 1, 0,12,15.00,30.00,Tuesday
7,-4.15
8,5311.085703913761
9,1.0
10,681.6705029034473
11,1.0
12,681.6705029034473
13,5311.085703913761
14,9.367272363915
15,24.336949360301298
16,13.93293637557656
17,1.3498193113392177
18,8.381126221152078
2,1, 1, 1, 0,12,30.00,45.00,Tuesday
7,-3.7249999999999998
8,4662.690913837487
9,1.0
10,602.01865277251
11,1.0
12,602.01865277251
13,4662.690913837487
14,9.308581064646666
15,21.309614847953193
16,13.220083191410652
17,1.1547048229505209
18,8.555992038353145
2,1, 1, 1, 0,12,45.00,60.00,Tuesday
7,-3.3
8,3808.078239646894
9,1.0
10,493.55004396206007
11,1.0
12,493.55004396206007
13,3808.078239646894
14,9.120328836216693
15,17.13143511239497
16,12.060398028491705
17,0.7129741770663145
18,8.64705262493667
2,1, 1, 1, 0,13, 0.00,15.00,Tuesday
7,-3.0249999999999996
8,3144.315777772823
9,1.0
10,412.335026418112
11,1.0
12,412.335026418112
13,3144.315777772823
14,8.990239635727522
15,14.287746703104297
16,11.127946450712955
17,0.41424467286219626
18,8.671248208682825
2,1, 1, 1, 0,13,15.00,30.00,Tuesday
7,-2.75
8,2302.9217937998539
9,1.0
10,305.94037763660148
11,1.0
12,305.94037763660148
13,2302.9217937998539
14,8.684330065177895
15,10.114959138878298
16,9.827829048190779
17,-0.10754624874493857
18,8.638890896608505
2,1, 1, 1, 0,13,30.00,45.00,Tuesday
7,-2.475
8,2102.48607738755
9,1.0
10,281.0763483922329
11,1.0
12,281.0763483922329
13,2102.48607738755
14,8.657811544833188
15,9.602863362661209
16,9.514102836309121
17,0.013990570906457834
18,8.589603851319036
2,1, 1, 1, 0,13,45.00,60.00,Tuesday
7,-2.2
8,1906.2257139727472
9,1.0
10,256.7721209415886
11,1.0
12,256.7721209415886
13,1906.2257139727472
14,8.623757661662312
15,8.996323181669267
16,9.274699200264877
17,0.16001373557094213
18,8.547531494253065
2,1, 1, 1, 0,14, 0.00,15.00,Tuesday
7,-1.9250000000000003
8,1557.1925362932798
9,1.0
10,210.73276284570657
11,1.0
12,210.73276284570657
13,1557.1925362932798
14,8.480265858562668
15,7.449198747403461
16,8.708063931654579
17,0.08887045404219407
18,8.510036070186052
2,1, 1, 1, 0,14,15.00,30.00,Tuesday
7,-1.6500000000000002
8,1383.289626194205
9,1.0
10,189.38488290342594
11,1.0
12,189.38488290342594
13,1383.289626194205
14,8.445540533323483
15,7.044833819531267
16,8.431488278981817
17,0.20951868867086888
18,8.476682328771139
2,1, 1, 1, 0,14,30.00,45.00,Tuesday
7,-1.375
8,1319.2668280210158
9,1.0
10,179.3940297802914
11,1.0
12,179.3940297802914
13,1319.2668280210158
14,8.438044797244327
15,7.1684557589551078
16,8.37695270245581
17,0.44523681152872998
18,8.44898591954869
2,1, 1, 1, 0,14,45.00,60.00,Tuesday
7,-1.1
8,1254.5126044863396
9,1.0
10,169.43349014176136
11,1.0
12,169.43349014176136
13,1254.5126044863396
14,8.425565858194878
15,7.267842340780605
16,8.315319522356845
17,0.678974426754337
18,8.426419308389424
2,1, 1, 1, 0,15, 0.00,15.00,Tuesday
7,-1.1
8,1320.4532200562244
9,1.0
10,178.15692317953907
11,1.0
12,178.15692317953907
13,1320.4532200562244
14,8.491754532706365
15,8.090177456930333
16,8.461527295592873
17,0.8161202247850383
18,8.411732464246658
2,1, 1, 1, 0,15,15.00,30.00,Tuesday
7,-1.1
8,1240.5295356630666
9,1.0
10,166.40516310952945
11,1.0
12,166.40516310952945
13,1240.5295356630666
14,8.437263762561296
15,7.723187387925408
16,8.309020023680944
17,0.7603787862597642
18,8.400426464586325
2,1, 1, 1, 0,15,30.00,45.00,Tuesday
7,-1.1
8,1045.9922150259893
9,1.0
10,140.8967369711617
11,1.0
12,140.8967369711617
13,1045.9922150259893
14,8.316758821088352
15,6.516450507723053
16,7.912319444981904
17,0.5361932124034183
18,8.382331449259585
2,1, 1, 1, 0,15,45.00,60.00,Tuesday
7,-1.1
8,860.7663464429996
9,1.0
10,116.57355796743004
11,1.0
12,116.57355796743004
13,860.7663464429996
14,8.204448127760623
15,5.310356716052164
16,7.52368039334317
17,0.31399148869206786
18,8.345703302290849
2,1, 1, 1, 0,16, 0.00,15.00,Tuesday
7,-1.1
8,683.153283387036
9,1.0
10,93.14939272689483
11,1.0
12,93.14939272689483
13,683.153283387036
14,8.100479214939805
15,4.2603796999401999
16,7.179362186684898
17,0.16805203588359064
18,8.288957185138872
2,1, 1, 1, 0,16,15.00,30.00,Tuesday
7,-1.1
8,424.1027961881881
9,1.0
10,57.94047897402063
11,1.0
12,57.94047897402063
13,424.1027961881881
14,7.905527777493178
15,2.137288703396149
16,6.655006914670707
17,-0.12634040446812379
18,8.204835282801204
2,1, 1, 1, 0,16,30.00,45.00,Tuesday
7,-1.1
8,328.818202681909
9,1.0
10,45.38251793443488
11,1.0
12,45.38251793443488
13,328.818202681909
14,7.8275014509717659
15,1.527934982475584
16,6.426869676374565
17,-0.17884665771475739
18,8.10787023284617
2,1, 1, 1, 0,16,45.00,60.00,Tuesday
7,-1.1
8,229.5368897813599
9,1.0
10,32.02625108222755
11,1.0
12,32.02625108222755
13,229.5368897813599
14,7.710654181307295
15,0.6661433250955371
16,6.2114578477962258
17,-0.23538016323863077
18,8.01201537708882
2,1, 1, 1, 0,17, 0.00,15.00,Tuesday
7,-1.1
8,125.90066255561666
9,1.0
10,17.762198626050539
11,1.0
12,17.762198626050539
13,125.90066255561666
14,7.569230215352508
15,-0.5830186017980189
16,5.941140909842602
17,-0.4039024232973816
18,7.917029546130337
2,1, 1, 1, 0,17,15.00,30.00,Tuesday
7,-1.1
8,0.0
9,0.0
10,0.0
11,0.0
12,0.0
13,0.0
14,7.378497367529977
15,-2.4192879452117679
16,5.5987417028565009
17,-0.6834068081367377
18,7.810843290411283
2,1, 1, 1, 0,17,30.00,45.00,Tuesday
7,-1.1
8,0.0
9,0.0
10,0.0
11,0.0
12,0.0
13,0.0
14,7.320774180791962
15,-2.5542093098023259
16,5.511326998438108
17,-0.6759785729216219
18,7.70764697221969
2,1, 1, 1, 0,17,45.00,60.00,Tuesday
7,-1.1
8,0.0
9,0.0
10,0.0
11,0.0
12,0.0
13,0.0
14,7.247602691289866
15,-2.743455101800362
16,5.464930340970795
17,-0.6522710749135285
18,7.6208031099320518
2,1, 1, 1, 0,18, 0.00,15.00,Tuesday
7,-1.25
8,0.0
9,0.0
10,0.0
11,0.0
12,0.0
13,0.0
14,7.185905881669709
15,-2.8915185373697285
16,5.374402013160648
17,-0.7924012505167184
18,7.550955635919
2,1, 1, 1, 0,18,15.00,30.00,Tuesday
7,-1.4
8,0.0
9,0.0
10,0.0
11,0.0
12,0.0
13,0.0
14,7.129555812810177
15,-3.043949197518762
16,5.2978561244973438
17,-0.9236962877432688
18,7.492858221389101
2,1, 1, 1, 0,18,30.00,45.00,Tuesday
7,-1.5499999999999999
8,0.0
9,0.0
10,0.0
11,0.0
12,0.0
13,0.0
14,7.077425451793804
15,-3.195942305412365
16,5.225660208852105
17,-1.0541976582563848
18,7.441159313915297
2,1, 1, 1, 0,18,45.00,60.00,Tuesday
7,-1.7
8,0.0
9,0.0
10,0.0
11,0.0
12,0.0
13,0.0
14,7.027305719461267
15,-3.348103867738979
16,5.156331893632114
17,-1.1839812724413719
18,7.392500762352186
2,1, 1, 1, 0,19, 0.00,15.00,Tuesday
7,-1.825
8,0.0
9,0.0
10,0.0
11,0.0
12,0.0
13,0.0
14,7.0018262559555659
15,-3.2035020859295879
16,5.079906343635116
17,-1.337243039557734
18,7.348703796983432
2,1, 1, 1, 0,19,15.00,30.00,Tuesday
7,-1.9500000000000002
8,0.0
9,0.0
10,0.0
11,0.0
12,0.0
13,0.0
14,6.9752054647050969
15,-3.1399059579617805
16,5.0163805073839289
17,-1.4821843825009183
18,7.311549261619196
2,1, 1, 1, 0,19,30.00,45.00,Tuesday
7,-2.075
8,0.0
9,0.0
10,0.0
11,0.0
12,0.0
13,0.0
14,6.94420889412252
15,-3.214572800298521
16,4.965867979246525
17,-1.5977119907397537
18,7.279632444647382
2,1, 1, 1, 0,19,45.00,60.00,Tuesday
7,-2.2
8,0.0
9,0.0
10,0.0
11,0.0
12,0.0
13,0.0
14,6.916071638166995
15,-3.1951517070050658
16,4.9068573065499099
17,-1.737421382064099
18,7.249910510756422
2,1, 1, 1, 0,20, 0.00,15.00,Tuesday
7,-1.9250000000000003
8,0.0
9,0.0
10,0.0
11,0.0
12,0.0
13,0.0
14,6.903698915855768
15,-2.894676010919427
16,4.946098142788742
17,-1.5317601384438718
18,7.222873133923806
2,1, 1, 1, 0,20,15.00,30.00,Tuesday
7,-1.6500000000000002
8,0.0
9,0.0
10,0.0
11,0.0
12,0.0
13,0.0
14,6.8918098596268069
15,-2.5971218834213136
16,4.983966110119582
17,-1.314555969643834
18,7.199065310133148
2,1, 1, 1, 0,20,30.00,45.00,Tuesday
7,-1.375
8,0.0
9,0.0
10,0.0
11,0.0
12,0.0
13,0.0
14,6.881702280472193
15,-2.300821913741623
16,5.023470895121932
17,-1.0950231381751792
18,7.178115168873181
2,1, 1, 1, 0,20,45.00,60.00,Tuesday
7,-1.1
8,0.0
9,0.0
10,0.0
11,0.0
12,0.0
13,0.0
14,6.874164137609842
15,-2.0057580611030367
16,5.065040462289403
17,-0.8732159972605587
18,7.159440113164904
2,1, 1, 1, 0,21, 0.00,15.00,Tuesday
7,-1.25
8,0.0
9,0.0
10,0.0
11,0.0
12,0.0
13,0.0
14,6.824134737911597
15,-2.284037232008743
16,5.0238756896935119
17,-0.954584197086092
18,7.136175695161787
2,1, 1, 1, 0,21,15.00,30.00,Tuesday
7,-1.4
8,0.0
9,0.0
10,0.0
11,0.0
12,0.0
13,0.0
14,6.775941304988207
15,-2.4990223554134145
16,4.969008192260503
17,-1.0548737842115657
18,7.103627001070605
2,1, 1, 1, 0,21,30.00,45.00,Tuesday
7,-1.5499999999999999
8,0.0
9,0.0
10,0.0
11,0.0
12,0.0
13,0.0
14,6.714426168529567
15,-2.8395167378226047
16,4.919259422658001
17,-1.1299682086698795
18,7.061029642611185
2,1, 1, 1, 0,21,45.00,60.00,Tuesday
7,-1.7
8,0.0
9,0.0
10,0.0
11,0.0
12,0.0
13,0.0
14,6.647629564616227
15,-3.287018880579609
16,4.8701517152263709
17,-1.1778314563556478
18,7.010689288013735
2,1, 1, 1, 0,22, 0.00,15.00,Tuesday
7,-1.5499999999999999
8,0.0
9,0.0
10,0.0
11,0.0
12,0.0
13,0.0
14,6.648305045530125
15,-2.804673773450469
16,4.838316053978019
17,-1.1450439466485705
18,6.966065747244647
2,1, 1, 1, 0,22,15.00,30.00,Tuesday
7,-1.4
8,0.0
9,0.0
10,0.0
11,0.0
12,0.0
13,0.0
14,6.638993249241865
15,-2.478080540059012
16,4.840983369376545
17,-1.075874837103413
18,6.934372601110149
2,1, 1, 1, 0,22,30.00,45.00,Tuesday
7,-1.25
8,0.0
9,0.0
10,0.0
11,0.0
12,0.0
13,0.0
14,6.628734720963621
15,-2.259570062649134
16,4.852880648511814
17,-0.9789340200400147
18,6.91329339038426
2,1, 1, 1, 0,22,45.00,60.00,Tuesday
7,-1.1
8,0.0
9,0.0
10,0.0
11,0.0
12,0.0
13,0.0
14,6.6224369177832049
15,-1.9798865206599544
16,4.8638961925705079
17,-0.8883869613260913
18,6.897542471712566
2,1, 1, 1, 0,23, 0.00,15.00,Tuesday
7,-1.25
8,0.0
9,0.0
10,0.0
11,0.0
12,0.0
13,0.0
14,6.571937393958295
15,-2.2832170251656169
16,4.7724727861759679
17,-1.1642605116828123
18,6.876556698529706
2,1, 1, 1, 0,23,15.00,30.00,Tuesday
7,-1.4
8,0.0
9,0.0
10,0.0
11,0.0
12,0.0
13,0.0
14,6.5245438332640239
15,-2.587828781456516
16,4.668978616047639
17,-1.456801912877495
18,6.845287006021835
2,1, 1, 1, 0,23,30.00,45.00,Tuesday
7,-1.5499999999999999
8,0.0
9,0.0
10,0.0
11,0.0
12,0.0
13,0.0
14,6.472352689652498
15,-2.8931214159084015
16,4.563705685475384
17,-1.7513431392226267
18,6.804995751471345
2,1, 1, 1, 0,23,45.00,60.00,Tuesday
7,-1.7
8,0.0
9,0.0
10,0.0
11,0.0
12,0.0
13,0.0
14,6.416260659451148
15,-3.1987542633099417
16,4.454426435581524
17,-2.047313591301304
18,6.758724751009553
2,1, 1, 1, 0,24, 0.00,15.00,Tuesday
7,-1.7
8,0.0
9,0.0
10,0.0
11,0.0
12,0.0
13,0.0
14,6.37615712834141
15,-3.2528607982077055
16,4.403456225743469
17,-2.1110609561981734
18,6.712071822115752
2,1, 1, 1, 0,24,15.00,30.00,Tuesday
7,-1.7
8,0.0
9,0.0
10,0.0
11,0.0
12,0.0
13,0.0
14,6.33395332056858
15,-3.307566078297014
16,4.356499544481437
17,-2.172913461274561
18,6.667986315777301
2,1, 1, 1, 0,24,30.00,45.00,Tuesday
7,-1.7
8,0.0
9,0.0
10,0.0
11,0.0
12,0.0
13,0.0
14,6.292841433035154
15,-3.3621635743058508
16,4.3094005269924768
17,-2.234732560545865
18,6.626422169485854
2,1, 1, 1, 0,24,45.00,60.00,Tuesday
7,-1.7
8,0.0
9,0.0
10,0.0
11,0.0
12,0.0
13,0.0
14,6.252546381798127
15,-3.416763940105549
16,4.263221988509997
17,-2.2962415688564308
18,6.5863459296058119
End of Data
 Number of Records Written=        1152
