Program Version,EnergyPlus, Version 9.5.0-de239b2e5f, YMD=2022.10.26 18:54
1,5,Environment Title[],Latitude[deg],Longitude[deg],Time Zone[],Elevation[m]
2,8,Day of Simulation[],Month[],Day of Month[],DST Indicator[1=yes 0=no],Hour[],StartMinute[],EndMinute[],DayType
3,5,Cumulative Day of Simulation[],Month[],Day of Month[],DST Indicator[1=yes 0=no],DayType  ! When Daily Report Variables Requested
4,2,Cumulative Days of Simulation[],Month[]  ! When Monthly Report Variables Requested
5,1,Cumulative Days of Simulation[] ! When Run Period Report Variables Requested
6,1,Calendar Year of Simulation[] ! When Annual Report Variables Requested
7,1,Environment,Site Outdoor Air Drybulb Temperature [C] !TimeStep
8,1,ZONE ONE,Zone Windows Total Transmitted Solar Radiation Rate [W] !TimeStep
9,1,ZN001:WALL001,Surface Outside Face Sunlit Fraction [] !TimeStep
10,1,ZN001:WALL001,Surface Outside Face Incident Solar Radiation Rate per Area [W/m2] !TimeStep
11,1,ZN001:WALL001:WIN001,Surface Outside Face Sunlit Fraction [] !TimeStep
12,1,ZN001:WALL001:WIN001,Surface Outside Face Incident Solar Radiation Rate per Area [W/m2] !TimeStep
13,1,ZN001:WALL001:WIN001,Surface Window Transmitted Solar Radiation Rate [W] !TimeStep
14,1,ZN001:WALL001,Surface Inside Face Temperature [C] !TimeStep
15,1,ZN001:WALL001,Surface Outside Face Temperature [C] !TimeStep
16,1,ZN001:WALL001:WIN001,Surface Inside Face Temperature [C] !TimeStep
17,1,ZN001:WALL001:WIN001,Surface Outside Face Temperature [C] !TimeStep
18,1,ZONE ONE,Zone Mean Air Temperature [C] !TimeStep
End of Data Dictionary
1,RUN PERIOD 1,  41.98, -87.92,  -6.00, 201.00
2,1, 1, 1, 0, 1, 0.00,15.00,Tuesday
7,-4.324999999999999
8,0.0
9,0.0
10,0.0
11,0.0
12,0.0
13,0.0
14,2.6519758829180248
15,-5.955662127564805
16,0.9018071430923556
17,-4.93454029451334
18,3.0281803484549396
2,1, 1, 1, 0, 1,15.00,30.00,Tuesday
7,-6.949999999999999
8,0.0
9,0.0
10,0.0
11,0.0
12,0.0
13,0.0
14,2.4751909855012648
15,-8.42353478266754
16,0.2875586902694067
17,-7.0222195756671799
18,2.9406510495029307
2,1, 1, 1, 0, 1,30.00,45.00,Tuesday
7,-9.575
8,0.0
9,0.0
10,0.0
11,0.0
12,0.0
13,0.0
14,2.2786766574455306
15,-10.899623177537548
16,-0.32997433112234378
17,-9.11657874247851
18,2.820346780719415
2,1, 1, 1, 0, 1,45.00,60.00,Tuesday
7,-12.2
8,0.0
9,0.0
10,0.0
11,0.0
12,0.0
13,0.0
14,2.0663630707562725
15,-13.382287859232326
16,-0.9613185281157826
17,-11.219002956074747
18,2.6766962940561145
2,1, 1, 1, 0, 2, 0.00,15.00,Tuesday
7,-12.075
8,0.0
9,0.0
10,0.0
11,0.0
12,0.0
13,0.0
14,2.0079182452079227
15,-13.18376203217678
16,-1.0242198572627786
17,-11.069046102716527
18,2.5468148152187926
2,1, 1, 1, 0, 2,15.00,30.00,Tuesday
7,-11.95
8,0.0
9,0.0
10,0.0
11,0.0
12,0.0
13,0.0
14,1.9350210798701396
15,-13.006504770031354
16,-1.0488358922426074
17,-10.921847702472008
18,2.448491782244881
2,1, 1, 1, 0, 2,30.00,45.00,Tuesday
7,-11.825
8,0.0
9,0.0
10,0.0
11,0.0
12,0.0
13,0.0
14,1.8791074310902665
15,-12.828057727742787
16,-1.0683531338857507
17,-10.77427165364361
18,2.377187964874542
2,1, 1, 1, 0, 2,45.00,60.00,Tuesday
7,-11.7
8,0.0
9,0.0
10,0.0
11,0.0
12,0.0
13,0.0
14,1.8345455876463713
15,-12.649674446919033
16,-1.0752437279847982
17,-10.624035057349034
18,2.322244074577318
2,1, 1, 1, 0, 3, 0.00,15.00,Tuesday
7,-11.549999999999999
8,0.0
9,0.0
10,0.0
11,0.0
12,0.0
13,0.0
14,1.7916991530477094
15,-12.524845717516714
16,-1.0739625885194642
17,-10.493157497375364
18,2.2746718748016168
2,1, 1, 1, 0, 3,15.00,30.00,Tuesday
7,-11.399999999999999
8,0.0
9,0.0
10,0.0
11,0.0
12,0.0
13,0.0
14,1.7522720527269136
15,-12.401436973426886
16,-1.073518229639376
17,-10.353901871145809
18,2.229789414194129
2,1, 1, 1, 0, 3,30.00,45.00,Tuesday
7,-11.25
8,0.0
9,0.0
10,0.0
11,0.0
12,0.0
13,0.0
14,1.713854760935043
15,-12.27961852055018
16,-1.0716119596258978
17,-10.213839073399527
18,2.1860766816905214
2,1, 1, 1, 0, 3,45.00,60.00,Tuesday
7,-11.1
8,0.0
9,0.0
10,0.0
11,0.0
12,0.0
13,0.0
14,1.6759791682165535
15,-12.159450390427248
16,-1.0690664139873434
17,-10.073956542988413
18,2.143248593081622
2,1, 1, 1, 0, 4, 0.00,15.00,Tuesday
7,-11.1
8,0.0
9,0.0
10,0.0
11,0.0
12,0.0
13,0.0
14,1.6344939013364913
15,-12.129226098681097
16,-1.1145090228929462
17,-10.091422446234674
18,2.1004439001646975
2,1, 1, 1, 0, 4,15.00,30.00,Tuesday
7,-11.1
8,0.0
9,0.0
10,0.0
11,0.0
12,0.0
13,0.0
14,1.5934128224932645
15,-12.100172043791709
16,-1.1545243006320334
17,-10.115958371564944
18,2.0573265316258819
2,1, 1, 1, 0, 4,30.00,45.00,Tuesday
7,-11.1
8,0.0
9,0.0
10,0.0
11,0.0
12,0.0
13,0.0
14,1.5521854616945994
15,-12.072735472647566
16,-1.1938130501890215
17,-10.140423708625747
18,2.0139805149126617
2,1, 1, 1, 0, 4,45.00,60.00,Tuesday
7,-11.1
8,0.0
9,0.0
10,0.0
11,0.0
12,0.0
13,0.0
14,1.5108956120922364
15,-12.046783011154349
16,-1.2329057447373089
17,-10.164174889163064
18,1.9705770853245504
2,1, 1, 1, 0, 5, 0.00,15.00,Tuesday
7,-10.975
8,0.0
9,0.0
10,0.0
11,0.0
12,0.0
13,0.0
14,1.4752899304387453
15,-11.924598543122859
16,-1.2369923390320992
17,-10.076011636017939
18,1.9282310040509603
2,1, 1, 1, 0, 5,15.00,30.00,Tuesday
7,-10.85
8,0.0
9,0.0
10,0.0
11,0.0
12,0.0
13,0.0
14,1.4398738474957296
15,-11.802505061877064
16,-1.2429209126885326
17,-9.980013495485196
18,1.887413385026372
2,1, 1, 1, 0, 5,30.00,45.00,Tuesday
7,-10.725
8,0.0
9,0.0
10,0.0
11,0.0
12,0.0
13,0.0
14,1.4054225217591732
15,-11.68039073280478
16,-1.2485951349473226
17,-9.883180774211326
18,1.8479262979689775
2,1, 1, 1, 0, 5,45.00,60.00,Tuesday
7,-10.6
8,0.0
9,0.0
10,0.0
11,0.0
12,0.0
13,0.0
14,1.3717863981981476
15,-11.558286256183669
16,-1.253516166156544
17,-9.78612116590358
18,1.8094162077133689
2,1, 1, 1, 0, 6, 0.00,15.00,Tuesday
7,-10.6
8,0.0
9,0.0
10,0.0
11,0.0
12,0.0
13,0.0
14,1.3309132276341574
15,-11.559117738459399
16,-1.2853182418858183
17,-9.788524542270011
18,1.7703991621625537
2,1, 1, 1, 0, 6,15.00,30.00,Tuesday
7,-10.6
8,0.0
9,0.0
10,0.0
11,0.0
12,0.0
13,0.0
14,1.290657728260123
15,-11.55986752457385
16,-1.3188685965143919
17,-9.794384763648054
18,1.73008604668077
2,1, 1, 1, 0, 6,30.00,45.00,Tuesday
7,-10.6
8,0.0
9,0.0
10,0.0
11,0.0
12,0.0
13,0.0
14,1.2498393452717814
15,-11.560661051016414
16,-1.35483018623097
17,-9.79896675933037
18,1.6885768759680678
2,1, 1, 1, 0, 6,45.00,60.00,Tuesday
7,-10.6
8,0.0
9,0.0
10,0.0
11,0.0
12,0.0
13,0.0
14,1.208694504953674
15,-11.561457225244628
16,-1.386610500130189
17,-9.807155223169275
18,1.6464994754449583
2,1, 1, 1, 0, 7, 0.00,15.00,Tuesday
7,-10.6
8,0.0
9,0.0
10,0.0
11,0.0
12,0.0
13,0.0
14,1.1696337304722194
15,-11.53652760080771
16,-1.4266444554558576
17,-9.825488403000975
18,1.6044840425126728
2,1, 1, 1, 0, 7,15.00,30.00,Tuesday
7,-10.6
8,0.0
9,0.0
10,0.0
11,0.0
12,0.0
13,0.0
14,1.130414611517497
15,-11.512892954233664
16,-1.4631562099727376
17,-9.844838302981941
18,1.5629339484654004
2,1, 1, 1, 0, 7,30.00,45.00,Tuesday
7,-10.6
8,0.0
9,0.0
10,0.0
11,0.0
12,0.0
13,0.0
14,1.0914508503815157
15,-11.490455747810218
16,-1.4992518040434107
17,-9.863806601696524
18,1.5218714787196808
2,1, 1, 1, 0, 7,45.00,60.00,Tuesday
7,-10.6
8,0.0
9,0.0
10,0.0
11,0.0
12,0.0
13,0.0
14,1.0527742894376522
15,-11.46914553276292
16,-1.534926186934058
17,-9.882137267066412
18,1.4811878945214399
2,1, 1, 1, 0, 8, 0.00,15.00,Tuesday
7,-10.45
8,0.0
9,0.0
10,0.0
11,0.0
12,0.0
13,0.0
14,1.013260009407245
15,-11.421065371104194
16,-1.5502406322527805
17,-9.8368539946714
18,1.4404706345598784
2,1, 1, 1, 0, 8,15.00,30.00,Tuesday
7,-10.3
8,96.42661238977162
9,1.0
10,22.819555959623899
11,1.0
12,22.819555959623899
13,96.42661238977162
14,1.0832197352378304
15,-9.748059635797168
16,-1.1724767292283787
17,-9.46111655525084
18,1.415432639077329
2,1, 1, 1, 0, 8,30.00,45.00,Tuesday
7,-10.15
8,474.60541633128278
9,1.0
10,109.75755355442667
11,1.0
12,109.75755355442667
13,474.60541633128278
14,1.450917748553722
15,-3.3862004059920829
16,0.38969226097242429
17,-8.137632965039302
18,1.449155927398482
2,1, 1, 1, 0, 8,45.00,60.00,Tuesday
7,-10.0
8,866.244564454756
9,1.0
10,195.8764694434918
11,1.0
12,195.8764694434918
13,866.244564454756
14,1.9462587656894009
15,3.139450496167728
16,2.1216361292811145
17,-6.813110827269952
18,1.5457127300174434
2,1, 1, 1, 0, 9, 0.00,15.00,Tuesday
7,-9.725
8,1259.6795884260615
9,1.0
10,278.97248314719988
11,1.0
12,278.97248314719988
13,1259.6795884260615
14,2.2723264957806279
15,8.277705653956819
16,3.673271446811782
17,-5.667240459764912
18,1.692241236022602
2,1, 1, 1, 0, 9,15.00,30.00,Tuesday
7,-9.45
8,1677.483085590409
9,1.0
10,364.91995730569456
11,1.0
12,364.91995730569456
13,1677.483085590409
14,2.666385620619904
15,13.364403291023664
16,5.201941449264837
17,-4.533830530731393
18,1.8804239208757446
2,1, 1, 1, 0, 9,30.00,45.00,Tuesday
7,-9.175
8,1957.8502286579276
9,1.0
10,420.35879993239237
11,1.0
12,420.35879993239237
13,1957.8502286579276
14,2.934069123115394
15,16.122544465504569
16,6.211688094105966
17,-3.8419255356518535
18,2.090489859890201
2,1, 1, 1, 0, 9,45.00,60.00,Tuesday
7,-8.9
8,2249.9750529425884
9,1.0
10,478.00138373643099
11,1.0
12,478.00138373643099
13,2249.9750529425884
14,3.2503974230483649
15,19.118079288010006
16,7.22325673525188
17,-3.1239483236703338
18,2.3126904366483629
2,1, 1, 1, 0,10, 0.00,15.00,Tuesday
7,-8.350000000000002
8,2549.2387155739336
9,1.0
10,536.9185644770597
11,1.0
12,536.9185644770597
13,2549.2387155739336
14,3.508641210935824
15,20.237626920584146
16,8.259711370155515
17,-2.3847705791901037
18,2.5490537900788268
2,1, 1, 1, 0,10,15.00,30.00,Tuesday
7,-7.800000000000001
8,2859.4267895585364
9,1.0
10,598.0969199229219
11,1.0
12,598.0969199229219
13,2859.4267895585364
14,3.791958298444129
15,21.492131727608205
16,9.315144465198614
17,-1.6491738613601684
18,2.805119064422619
2,1, 1, 1, 0,10,30.00,45.00,Tuesday
7,-7.25
8,3065.6302613999998
9,1.0
10,637.6133352894237
11,1.0
12,637.6133352894237
13,3065.6302613999998
14,4.006805713229902
15,21.55325621935477
16,10.057594475745646
17,-1.1475309191754378
18,3.066401074928749
2,1, 1, 1, 0,10,45.00,60.00,Tuesday
7,-6.7
8,3268.901522831109
9,1.0
10,676.6412284283772
11,1.0
12,676.6412284283772
13,3268.901522831109
14,4.240698138879635
15,21.71455801869384
16,10.775658692905268
17,-0.6496725115536037
18,3.322100584664881
2,1, 1, 1, 0,11, 0.00,15.00,Tuesday
7,-6.275
8,3468.4787947987299
9,1.0
10,715.0112779846514
11,1.0
12,715.0112779846514
13,3468.4787947987299
14,4.5511392425273879
15,23.812071371080707
16,11.534665344226483
17,0.09244830355783052
18,3.5749681060534339
2,1, 1, 1, 0,11,15.00,30.00,Tuesday
7,-5.85
8,3663.269993409403
9,1.0
10,752.5077794605232
11,1.0
12,752.5077794605232
13,3663.269993409403
14,4.8484945501128149
15,25.74705164261997
16,12.282409450706212
17,0.8127160911585634
18,3.8296623128161237
2,1, 1, 1, 0,11,30.00,45.00,Tuesday
7,-5.425
8,3608.8649219642427
9,1.0
10,742.5988714321785
11,1.0
12,742.5988714321785
13,3608.8649219642427
14,5.018387421070957
15,25.598891620607316
16,12.391533362225289
17,1.0909269434826
18,4.069942707220028
2,1, 1, 1, 0,11,45.00,60.00,Tuesday
7,-5.0
8,3529.244255790345
9,1.0
10,727.8169025450712
11,1.0
12,727.8169025450712
13,3529.244255790345
14,5.183941571971851
15,25.369549812339316
16,12.410401106323207
17,1.3339251952794485
18,4.284234724880337
2,1, 1, 1, 0,12, 0.00,15.00,Tuesday
7,-4.575
8,3391.5177444928156
9,1.0
10,700.3759009170325
11,1.0
12,700.3759009170325
13,3391.5177444928156
14,5.296707241476639
15,24.62682907344539
16,12.259501283156738
17,1.5054680720957095
18,4.466685547649342
2,1, 1, 1, 0,12,15.00,30.00,Tuesday
7,-4.15
8,3287.4311455859817
9,1.0
10,681.6705029034473
11,1.0
12,681.6705029034473
13,3287.4311455859817
14,5.429374327098862
15,24.296255808242316
16,12.21005083910751
17,1.7559982930141587
18,4.624757860995612
2,1, 1, 1, 0,12,30.00,45.00,Tuesday
7,-3.7249999999999998
8,2882.9179691833408
9,1.0
10,602.01865277251
11,1.0
12,602.01865277251
13,2882.9179691833408
14,5.3439702691694459
15,21.26786794480117
16,11.330947864744644
17,1.4670982902753167
18,4.739096966914908
2,1, 1, 1, 0,12,45.00,60.00,Tuesday
7,-3.3
8,2352.6218892255585
9,1.0
10,493.55004396206007
11,1.0
12,493.55004396206007
13,2352.6218892255585
14,5.158956636527658
15,17.089246780718488
16,9.963117756884629
17,0.8956984511252131
18,4.789285090516799
2,1, 1, 1, 0,13, 0.00,15.00,Tuesday
7,-3.0249999999999996
8,1937.3269634124322
9,1.0
10,412.335026418112
11,1.0
12,412.335026418112
13,1937.3269634124322
14,5.026752851205535
15,14.244568282861679
16,8.896348802536182
17,0.505651345798185
18,4.789689773802196
2,1, 1, 1, 0,13,15.00,30.00,Tuesday
7,-2.75
8,1414.5467009849916
9,1.0
10,305.94037763660148
11,1.0
12,305.94037763660148
13,1414.5467009849916
14,4.753137245346189
15,10.070937643167742
16,7.414971776865059
17,-0.143609866767747
18,4.74707121871706
2,1, 1, 1, 0,13,30.00,45.00,Tuesday
7,-2.475
8,1289.2658050704163
9,1.0
10,281.0763483922329
11,1.0
12,281.0763483922329
13,1289.2658050704163
14,4.7348564339403789
15,9.55606949416048
16,7.0764086193300959
17,-0.05170197149482192
18,4.691892464096759
2,1, 1, 1, 0,13,45.00,60.00,Tuesday
7,-2.2
8,1166.5876548842649
9,1.0
10,256.7721209415886
11,1.0
12,256.7721209415886
13,1166.5876548842649
14,4.703897700329658
15,8.950828805944767
16,6.799545208884069
17,0.06426924787183452
18,4.645517826333848
2,1, 1, 1, 0,14, 0.00,15.00,Tuesday
7,-1.9250000000000003
8,951.6580013218959
9,1.0
10,210.73276284570657
11,1.0
12,210.73276284570657
13,951.6580013218959
14,4.5856453654795479
15,7.4022561850035439
16,6.159990509397403
17,-0.0698457270233348
18,4.604433515224248
2,1, 1, 1, 0,14,15.00,30.00,Tuesday
7,-1.6500000000000002
8,843.024558893695
9,1.0
10,189.38488290342594
11,1.0
12,189.38488290342594
13,843.024558893695
14,4.561068959371247
15,6.996152361854783
16,5.876415467551965
17,0.023117781911082603
18,4.568131105556795
2,1, 1, 1, 0,14,30.00,45.00,Tuesday
7,-1.375
8,804.6632183511958
9,1.0
10,179.3940297802914
11,1.0
12,179.3940297802914
13,804.6632183511958
14,4.561462571805526
15,7.117945663231343
16,5.798864505785161
17,0.23642046641555226
18,4.538657272019298
2,1, 1, 1, 0,14,45.00,60.00,Tuesday
7,-1.1
8,765.5588520005708
9,1.0
10,169.43349014176136
11,1.0
12,169.43349014176136
13,765.5588520005708
14,4.559569535863135
15,7.21574295840539
16,5.715998086248703
17,0.4474850706749294
18,4.516018554793202
2,1, 1, 1, 0,15, 0.00,15.00,Tuesday
7,-1.1
8,805.2150553488002
9,1.0
10,178.15692317953907
11,1.0
12,178.15692317953907
13,805.2150553488002
14,4.6125054686303799
15,8.031299623146588
16,5.867287496715733
17,0.5903842582800962
18,4.503087140200281
2,1, 1, 1, 0,15,15.00,30.00,Tuesday
7,-1.1
8,756.2433790740292
9,1.0
10,166.40516310952945
11,1.0
12,166.40516310952945
13,756.2433790740292
14,4.572156002422262
15,7.667768474155998
16,5.694383040901357
17,0.5106616711518655
18,4.494221100446187
2,1, 1, 1, 0,15,30.00,45.00,Tuesday
7,-1.1
8,636.4747232456177
9,1.0
10,140.8967369711617
11,1.0
12,140.8967369711617
13,636.4747232456177
14,4.475679708639298
15,6.4601950074176319
16,5.258903269319035
17,0.24600363623568456
18,4.477631851269958
2,1, 1, 1, 0,15,45.00,60.00,Tuesday
7,-1.1
8,522.7235097510675
9,1.0
10,116.57355796743004
11,1.0
12,116.57355796743004
13,522.7235097510675
14,4.36628384269416
15,5.242996398736621
16,4.814273560858112
17,-0.03270399707366778
18,4.44600045390538
2,1, 1, 1, 0,16, 0.00,15.00,Tuesday
7,-1.1
8,414.0081279208023
9,1.0
10,93.14939272689483
11,1.0
12,93.14939272689483
13,414.0081279208023
14,4.280675522805945
15,4.195655024724486
16,4.375888924105595
17,-0.2480372504211914
18,4.399916887230135
2,1, 1, 1, 0,16,15.00,30.00,Tuesday
7,-1.1
8,256.47389356800849
9,1.0
10,57.94047897402063
11,1.0
12,57.94047897402063
13,256.47389356800849
14,4.110058654028291
15,2.0663004340778978
16,3.7206519109623175
17,-0.6481587145181038
18,4.334626747939203
2,1, 1, 1, 0,16,30.00,45.00,Tuesday
7,-1.1
8,198.41305419285389
9,1.0
10,45.38251793443488
11,1.0
12,45.38251793443488
13,198.41305419285389
14,4.04695684207526
15,1.4509311947801629
16,3.4620221793974226
17,-0.7552202392358822
18,4.258393340137868
2,1, 1, 1, 0,16,45.00,60.00,Tuesday
7,-1.1
8,138.2427639570494
9,1.0
10,32.02625108222755
11,1.0
12,32.02625108222755
13,138.2427639570494
14,3.9499830634107249
15,0.5816130158225626
16,3.206751764165915
17,-0.8797011247908131
18,4.178287572871542
2,1, 1, 1, 0,17, 0.00,15.00,Tuesday
7,-1.1
8,75.7300491575989
9,1.0
10,17.762198626050539
11,1.0
12,17.762198626050539
13,75.7300491575989
14,3.8242573110823776
15,-0.6779642487540697
16,2.8899972841001615
17,-1.1338806203457353
18,4.092106717577255
2,1, 1, 1, 0,17,15.00,30.00,Tuesday
7,-1.1
8,0.0
9,0.0
10,0.0
11,0.0
12,0.0
13,0.0
14,3.6493144750500168
15,-2.5189255524187077
16,2.4948043494445075
17,-1.4789922686113642
18,3.9931770922822484
2,1, 1, 1, 0,17,30.00,45.00,Tuesday
7,-1.1
8,0.0
9,0.0
10,0.0
11,0.0
12,0.0
13,0.0
14,3.5993848505625758
15,-2.6584027166772099
16,2.4044538828298416
17,-1.5242771139314755
18,3.8967253625298139
2,1, 1, 1, 0,17,45.00,60.00,Tuesday
7,-1.1
8,0.0
9,0.0
10,0.0
11,0.0
12,0.0
13,0.0
14,3.5352568592879014
15,-2.855951833254175
16,2.347396265989744
17,-1.5734975380988772
18,3.8158342993645
2,1, 1, 1, 0,18, 0.00,15.00,Tuesday
7,-1.25
8,0.0
9,0.0
10,0.0
11,0.0
12,0.0
13,0.0
14,3.482851324873176
15,-3.0029326928653585
16,2.2633398083164026
17,-1.714974463849785
18,3.7519849706717105
2,1, 1, 1, 0,18,15.00,30.00,Tuesday
7,-1.4
8,0.0
9,0.0
10,0.0
11,0.0
12,0.0
13,0.0
14,3.435539900618494
15,-3.15529806693504
16,2.1937179755389595
17,-1.844463212047458
18,3.7006965937351166
2,1, 1, 1, 0,18,30.00,45.00,Tuesday
7,-1.5499999999999999
8,0.0
9,0.0
10,0.0
11,0.0
12,0.0
13,0.0
14,3.3926108883180658
15,-3.3070846947261396
16,2.128207804756471
17,-1.9735393914082238
18,3.6568719778795288
2,1, 1, 1, 0,18,45.00,60.00,Tuesday
7,-1.7
8,0.0
9,0.0
10,0.0
11,0.0
12,0.0
13,0.0
14,3.3519828052828655
15,-3.459041463578897
16,2.0658331962964668
17,-2.1016536244034116
18,3.6170192326666088
2,1, 1, 1, 0,19, 0.00,15.00,Tuesday
7,-1.825
8,0.0
9,0.0
10,0.0
11,0.0
12,0.0
13,0.0
14,3.338362189522005
15,-3.3016262055435257
16,2.0263586678162257
17,-2.152909788071156
18,3.5829919467376079
2,1, 1, 1, 0,19,15.00,30.00,Tuesday
7,-1.9500000000000002
8,0.0
9,0.0
10,0.0
11,0.0
12,0.0
13,0.0
14,3.325043930177229
15,-3.226738272553843
16,1.9897199372375667
17,-2.2240741080643717
18,3.556510849056657
2,1, 1, 1, 0,19,30.00,45.00,Tuesday
7,-2.075
8,0.0
9,0.0
10,0.0
11,0.0
12,0.0
13,0.0
14,3.3048107061390254
15,-3.2983652029269496
16,1.9511273712274715
17,-2.318554641759306
18,3.5357462778285266
2,1, 1, 1, 0,19,45.00,60.00,Tuesday
7,-2.2
8,0.0
9,0.0
10,0.0
11,0.0
12,0.0
13,0.0
14,3.288820757587247
15,-3.268947504057586
16,1.916357642569551
17,-2.401938926440266
18,3.517611088848073
2,1, 1, 1, 0,20, 0.00,15.00,Tuesday
7,-1.9250000000000003
8,0.0
9,0.0
10,0.0
11,0.0
12,0.0
13,0.0
14,3.2892544020087199
15,-2.965984687316822
16,1.969243030430107
17,-2.1797490698771186
18,3.502291592422422
2,1, 1, 1, 0,20,15.00,30.00,Tuesday
7,-1.6500000000000002
8,0.0
9,0.0
10,0.0
11,0.0
12,0.0
13,0.0
14,3.2898202572088648
15,-2.6662105200011068
16,2.022686618528553
17,-1.947458271023038
18,3.4901553437800407
2,1, 1, 1, 0,20,30.00,45.00,Tuesday
7,-1.375
8,0.0
9,0.0
10,0.0
11,0.0
12,0.0
13,0.0
14,3.2928497879189706
15,-2.3677831659871155
16,2.0776192871394416
17,-1.7132570067561233
18,3.4809028711462814
2,1, 1, 1, 0,20,45.00,60.00,Tuesday
7,-1.1
8,0.0
9,0.0
10,0.0
11,0.0
12,0.0
13,0.0
14,3.2965141005865679
15,-2.0707275492268595
16,2.1347160860887017
17,-1.4772920486518615
18,3.4738490352749915
2,1, 1, 1, 0,21, 0.00,15.00,Tuesday
7,-1.25
8,0.0
9,0.0
10,0.0
11,0.0
12,0.0
13,0.0
14,3.2553038348113887
15,-2.3591680872171056
16,2.083421769978827
17,-1.614140314687802
18,3.462261258539886
2,1, 1, 1, 0,21,15.00,30.00,Tuesday
7,-1.4
8,0.0
9,0.0
10,0.0
11,0.0
12,0.0
13,0.0
14,3.2157477818663948
15,-2.57954764941015
16,2.028504569102097
17,-1.7454687008328165
18,3.4413765496394035
2,1, 1, 1, 0,21,30.00,45.00,Tuesday
7,-1.5499999999999999
8,0.0
9,0.0
10,0.0
11,0.0
12,0.0
13,0.0
14,3.1621136973389745
15,-2.9334864824479855
16,1.9649098759354047
17,-1.896708861333991
18,3.4099595645681566
2,1, 1, 1, 0,21,45.00,60.00,Tuesday
7,-1.7
8,0.0
9,0.0
10,0.0
11,0.0
12,0.0
13,0.0
14,3.103081454772979
15,-3.3963509502749309
16,1.8881206415384782
17,-2.072157657532273
18,3.369885166577401
2,1, 1, 1, 0,22, 0.00,15.00,Tuesday
7,-1.5499999999999999
8,0.0
9,0.0
10,0.0
11,0.0
12,0.0
13,0.0
14,3.1165869439693716
15,-2.8958450036382938
16,1.9053561079940665
17,-1.912917898157275
18,3.3350982046411077
2,1, 1, 1, 0,22,15.00,30.00,Tuesday
7,-1.4
8,0.0
9,0.0
10,0.0
11,0.0
12,0.0
13,0.0
14,3.121197991320229
15,-2.5568821127449818
16,1.939017839510086
17,-1.7634418186897847
18,3.313372338960187
2,1, 1, 1, 0,22,30.00,45.00,Tuesday
7,-1.25
8,0.0
9,0.0
10,0.0
11,0.0
12,0.0
13,0.0
14,3.123624186975375
15,-2.3328512306681654
16,1.9690160536864597
17,-1.6311868951958105
18,3.3027202691709278
2,1, 1, 1, 0,22,45.00,60.00,Tuesday
7,-1.1
8,0.0
9,0.0
10,0.0
11,0.0
12,0.0
13,0.0
14,3.1299428915039746
15,-2.0432267421066667
16,2.007486236693296
17,-1.481046881034672
18,3.2980559185833848
2,1, 1, 1, 0,23, 0.00,15.00,Tuesday
7,-1.25
8,0.0
9,0.0
10,0.0
11,0.0
12,0.0
13,0.0
14,3.08896060210121
15,-2.346819839536197
16,1.919891881616536
17,-1.753281264315774
18,3.2890214600782419
2,1, 1, 1, 0,23,15.00,30.00,Tuesday
7,-1.4
8,0.0
9,0.0
10,0.0
11,0.0
12,0.0
13,0.0
14,3.050687667119309
15,-2.651346532789
16,1.8221117420418978
17,-2.043685856404011
18,3.2701051180609914
2,1, 1, 1, 0,23,30.00,45.00,Tuesday
7,-1.5499999999999999
8,0.0
9,0.0
10,0.0
11,0.0
12,0.0
13,0.0
14,3.008270975741783
15,-2.956513929237503
16,1.7233557383617609
17,-2.3342238835156197
18,3.2419662329709557
2,1, 1, 1, 0,23,45.00,60.00,Tuesday
7,-1.7
8,0.0
9,0.0
10,0.0
11,0.0
12,0.0
13,0.0
14,2.962080966721123
15,-3.2620278174801919
16,1.621174964801753
17,-2.6252788546372018
18,3.20734168628236
2,1, 1, 1, 0,24, 0.00,15.00,Tuesday
7,-1.7
8,0.0
9,0.0
10,0.0
11,0.0
12,0.0
13,0.0
14,2.933625714257137
15,-3.3158320516746029
16,1.5792567540773917
17,-2.6853834682430035
18,3.171775712175042
2,1, 1, 1, 0,24,15.00,30.00,Tuesday
7,-1.7
8,0.0
9,0.0
10,0.0
11,0.0
12,0.0
13,0.0
14,2.902076570082473
15,-3.3703937328603725
16,1.541407795496525
17,-2.7445341734530759
18,3.1383581687498167
2,1, 1, 1, 0,24,30.00,45.00,Tuesday
7,-1.7
8,0.0
9,0.0
10,0.0
11,0.0
12,0.0
13,0.0
14,2.871367187584345
15,-3.4248117780250815
16,1.5030144589796919
17,-2.8038614535489616
18,3.1072474429167444
2,1, 1, 1, 0,24,45.00,60.00,Tuesday
7,-1.7
8,0.0
9,0.0
10,0.0
11,0.0
12,0.0
13,0.0
14,2.8413399860181398
15,-3.4792309560545839
16,1.465367073322568
17,-2.8629489667774807
18,3.077564928742872
End of Data
 Number of Records Written=        1152
