Program Version,EnergyPlus, Version 9.5.0-de239b2e5f, YMD=2022.10.26 18:54
1,5,Environment Title[],Latitude[deg],Longitude[deg],Time Zone[],Elevation[m]
2,8,Day of Simulation[],Month[],Day of Month[],DST Indicator[1=yes 0=no],Hour[],StartMinute[],EndMinute[],DayType
3,5,Cumulative Day of Simulation[],Month[],Day of Month[],DST Indicator[1=yes 0=no],DayType  ! When Daily Report Variables Requested
4,2,Cumulative Days of Simulation[],Month[]  ! When Monthly Report Variables Requested
5,1,Cumulative Days of Simulation[] ! When Run Period Report Variables Requested
6,1,Calendar Year of Simulation[] ! When Annual Report Variables Requested
7,1,Environment,Site Outdoor Air Drybulb Temperature [C] !TimeStep
8,1,ZONE ONE,Zone Windows Total Transmitted Solar Radiation Rate [W] !TimeStep
9,1,ZN001:WALL001,Surface Outside Face Sunlit Fraction [] !TimeStep
10,1,ZN001:WALL001,Surface Outside Face Incident Solar Radiation Rate per Area [W/m2] !TimeStep
11,1,ZN001:WALL001:WIN001,Surface Outside Face Sunlit Fraction [] !TimeStep
12,1,ZN001:WALL001:WIN001,Surface Outside Face Incident Solar Radiation Rate per Area [W/m2] !TimeStep
13,1,ZN001:WALL001:WIN001,Surface Window Transmitted Solar Radiation Rate [W] !TimeStep
14,1,ZN001:WALL001,Surface Inside Face Temperature [C] !TimeStep
15,1,ZN001:WALL001,Surface Outside Face Temperature [C] !TimeStep
16,1,ZN001:WALL001:WIN001,Surface Inside Face Temperature [C] !TimeStep
17,1,ZN001:WALL001:WIN001,Surface Outside Face Temperature [C] !TimeStep
18,1,ZONE ONE,Zone Mean Air Temperature [C] !TimeStep
End of Data Dictionary
1,RUN PERIOD 1,  41.98, -87.92,  -6.00, 201.00
2,1, 1, 1, 0, 1, 0.00,15.00,Tuesday
7,-4.324999999999999
8,0.0
9,0.0
10,0.0
11,0.0
12,0.0
13,0.0
14,7.587257989596898
15,-5.865804048873095
16,4.97841688545418
17,-4.099871998071535
18,8.08871933559427
2,1, 1, 1, 0, 1,15.00,30.00,Tuesday
7,-6.949999999999999
8,0.0
9,0.0
10,0.0
11,0.0
12,0.0
13,0.0
14,7.402291992521612
15,-8.33293274088399
16,4.376663830569498
17,-6.187352441749056
18,7.985233344567396
2,1, 1, 1, 0, 1,30.00,45.00,Tuesday
7,-9.575
8,0.0
9,0.0
10,0.0
11,0.0
12,0.0
13,0.0
14,7.197158794304944
15,-10.80799730991802
16,3.7681334329579387
17,-8.28099432004825
18,7.850368542413518
2,1, 1, 1, 0, 1,45.00,60.00,Tuesday
7,-12.2
8,0.0
9,0.0
10,0.0
11,0.0
12,0.0
13,0.0
14,6.976182267549722
15,-13.289697754829224
16,3.1444728447430068
17,-10.382165639625328
18,7.693969623444537
2,1, 1, 1, 0, 2, 0.00,15.00,Tuesday
7,-12.075
8,0.0
9,0.0
10,0.0
11,0.0
12,0.0
13,0.0
14,6.9022679008972729
15,-13.090448190151875
16,3.07151030071293
17,-10.221160825625987
18,7.553048430773124
2,1, 1, 1, 0, 2,15.00,30.00,Tuesday
7,-11.95
8,0.0
9,0.0
10,0.0
11,0.0
12,0.0
13,0.0
14,6.815239034351804
15,-12.913490446930736
16,3.0324383395028464
17,-10.077690980951389
18,7.44419598783058
2,1, 1, 1, 0, 2,30.00,45.00,Tuesday
7,-11.825
8,0.0
9,0.0
10,0.0
11,0.0
12,0.0
13,0.0
14,6.745449052631158
15,-12.735385346837548
16,2.999250245007488
17,-9.93377558505341
18,7.361616573694253
2,1, 1, 1, 0, 2,45.00,60.00,Tuesday
7,-11.7
8,0.0
9,0.0
10,0.0
11,0.0
12,0.0
13,0.0
14,6.686751412159895
15,-12.557367450683808
16,2.9787626333857135
17,-9.78722756997638
18,7.294140327218823
2,1, 1, 1, 0, 3, 0.00,15.00,Tuesday
7,-11.549999999999999
8,0.0
9,0.0
10,0.0
11,0.0
12,0.0
13,0.0
14,6.6297080463791169
15,-12.430330776291905
16,2.9664489117625409
17,-9.637152580456587
18,7.232908905278236
2,1, 1, 1, 0, 3,15.00,30.00,Tuesday
7,-11.399999999999999
8,0.0
9,0.0
10,0.0
11,0.0
12,0.0
13,0.0
14,6.575724452343095
15,-12.304621391231058
16,2.9559294596247129
17,-9.486840325749484
18,7.173681332319584
2,1, 1, 1, 0, 3,30.00,45.00,Tuesday
7,-11.25
8,0.0
9,0.0
10,0.0
11,0.0
12,0.0
13,0.0
14,6.5225379331116459
15,-12.180384771686186
16,2.947106721989769
17,-9.336257296306372
18,7.115314468776371
2,1, 1, 1, 0, 3,45.00,60.00,Tuesday
7,-11.1
8,0.0
9,0.0
10,0.0
11,0.0
12,0.0
13,0.0
14,6.469892483770463
15,-12.057675710378641
16,2.9426942091961907
17,-9.194844836984203
18,7.057791078060106
2,1, 1, 1, 0, 4, 0.00,15.00,Tuesday
7,-11.1
8,0.0
9,0.0
10,0.0
11,0.0
12,0.0
13,0.0
14,6.413388295227822
15,-12.03065063264053
16,2.8806252165456955
17,-9.228896492918353
18,7.000118481929735
2,1, 1, 1, 0, 4,15.00,30.00,Tuesday
7,-11.1
8,0.0
9,0.0
10,0.0
11,0.0
12,0.0
13,0.0
14,6.357315806131746
15,-12.00466668953589
16,2.8245868498270285
17,-9.269445395031824
18,6.941925232327778
2,1, 1, 1, 0, 4,30.00,45.00,Tuesday
7,-11.1
8,0.0
9,0.0
10,0.0
11,0.0
12,0.0
13,0.0
14,6.301031823130911
15,-11.98015048442697
16,2.7693209916722596
17,-9.30954571825464
18,6.883373410877029
2,1, 1, 1, 0, 4,45.00,60.00,Tuesday
7,-11.1
8,0.0
9,0.0
10,0.0
11,0.0
12,0.0
13,0.0
14,6.2446677705823518
15,-11.956972694322604
16,2.7142845989685044
17,-9.348577817012427
18,6.824722885466075
2,1, 1, 1, 0, 5, 0.00,15.00,Tuesday
7,-10.975
8,0.0
9,0.0
10,0.0
11,0.0
12,0.0
13,0.0
14,6.193910159397148
15,-11.835149751569532
16,2.69677715466446
17,-9.263375878615989
18,6.767232018185583
2,1, 1, 1, 0, 5,15.00,30.00,Tuesday
7,-10.85
8,0.0
9,0.0
10,0.0
11,0.0
12,0.0
13,0.0
14,6.14339037611724
15,-11.713387101770998
16,2.6770039786370605
17,-9.170046893351924
18,6.711389065059092
2,1, 1, 1, 0, 5,30.00,45.00,Tuesday
7,-10.725
8,0.0
9,0.0
10,0.0
11,0.0
12,0.0
13,0.0
14,6.093932741367673
15,-11.59160106112937
16,2.6575356065005169
17,-9.075864153281259
18,6.656947143061005
2,1, 1, 1, 0, 5,45.00,60.00,Tuesday
7,-10.6
8,0.0
9,0.0
10,0.0
11,0.0
12,0.0
13,0.0
14,6.045353103849091
15,-11.469824339899775
16,2.638896475033107
17,-8.981440832845749
18,6.603514416306005
2,1, 1, 1, 0, 6, 0.00,15.00,Tuesday
7,-10.6
8,0.0
9,0.0
10,0.0
11,0.0
12,0.0
13,0.0
14,5.989937637011618
15,-11.470894144723909
16,2.591642672556418
17,-8.983710276214766
18,6.549475762200472
2,1, 1, 1, 0, 6,15.00,30.00,Tuesday
7,-10.6
8,0.0
9,0.0
10,0.0
11,0.0
12,0.0
13,0.0
14,5.935164543115063
15,-11.471920956472904
16,2.5454905873035615
17,-8.992495273004693
18,6.49413295850682
2,1, 1, 1, 0, 6,30.00,45.00,Tuesday
7,-10.6
8,0.0
9,0.0
10,0.0
11,0.0
12,0.0
13,0.0
14,5.879863853300732
15,-11.472989520293993
16,2.499528975849387
17,-9.001844900439437
18,6.437783751569667
2,1, 1, 1, 0, 6,45.00,60.00,Tuesday
7,-10.6
8,0.0
9,0.0
10,0.0
11,0.0
12,0.0
13,0.0
14,5.824271674463828
15,-11.47405540584018
16,2.4532181341157299
17,-9.01133622612798
18,6.380950647167262
2,1, 1, 1, 0, 7, 0.00,15.00,Tuesday
7,-10.6
8,0.0
9,0.0
10,0.0
11,0.0
12,0.0
13,0.0
14,5.770587717798979
15,-11.4516911346807
16,2.3994323457695829
17,-9.044815158269217
18,6.324279394906218
2,1, 1, 1, 0, 7,15.00,30.00,Tuesday
7,-10.6
8,0.0
9,0.0
10,0.0
11,0.0
12,0.0
13,0.0
14,5.716810675667348
15,-11.430486754667286
16,2.347658892409413
17,-9.078586427061737
18,6.268103513823075
2,1, 1, 1, 0, 7,30.00,45.00,Tuesday
7,-10.6
8,0.0
9,0.0
10,0.0
11,0.0
12,0.0
13,0.0
14,5.663338603741282
15,-11.410363466585734
16,2.2963736405023384
17,-9.111491807977814
18,6.21240543644312
2,1, 1, 1, 0, 7,45.00,60.00,Tuesday
7,-10.6
8,0.0
9,0.0
10,0.0
11,0.0
12,0.0
13,0.0
14,5.610175923618086
15,-11.391256935794513
16,2.245617246920233
17,-9.143377657194606
18,6.157076273288701
2,1, 1, 1, 0, 8, 0.00,15.00,Tuesday
7,-10.45
8,0.0
9,0.0
10,0.0
11,0.0
12,0.0
13,0.0
14,5.556570748256585
15,-11.341466848944906
16,2.221364745040887
17,-9.089349428374021
18,6.101835201346792
2,1, 1, 1, 0, 8,15.00,30.00,Tuesday
7,-10.3
8,188.30072792876048
9,1.0
10,22.819555959623899
11,1.0
12,22.819555959623899
13,188.30072792876048
14,5.628755662194017
15,-9.667558066803132
16,2.5006913416574436
17,-8.76950429392798
18,6.066231485601482
2,1, 1, 1, 0, 8,30.00,45.00,Tuesday
7,-10.15
8,924.5584615420154
9,1.0
10,109.75755355442667
11,1.0
12,109.75755355442667
13,924.5584615420154
14,6.044609392123885
15,-3.2930241237424258
16,3.702755714213083
17,-7.700486566772952
18,6.104968078364092
2,1, 1, 1, 0, 8,45.00,60.00,Tuesday
7,-10.0
8,1681.2103080215107
9,1.0
10,195.8764694434918
11,1.0
12,195.8764694434918
13,1681.2103080215107
14,6.570094523106571
15,3.182419882511449
16,5.031765688164228
17,-6.637112753194174
18,6.225847099594914
2,1, 1, 1, 0, 9, 0.00,15.00,Tuesday
7,-9.725
8,2435.2559543376348
9,1.0
10,278.97248314719988
11,1.0
12,278.97248314719988
13,2435.2559543376348
14,7.028774481674497
15,8.362609060587515
16,6.418449781155061
17,-5.675258924135051
18,6.404005606607768
2,1, 1, 1, 0, 9,15.00,30.00,Tuesday
7,-9.45
8,3230.1064742458568
9,1.0
10,364.91995730569456
11,1.0
12,364.91995730569456
13,3230.1064742458568
14,7.494723470866252
15,13.43762115430874
16,7.817166364917966
17,-4.711308449136084
18,6.629213946136877
2,1, 1, 1, 0, 9,30.00,45.00,Tuesday
7,-9.175
8,3755.9765580668806
9,1.0
10,420.35879993239237
11,1.0
12,420.35879993239237
13,3755.9765580668806
14,7.830179730117812
15,16.194513323176193
16,8.752045878672107
17,-4.11551357238227
18,6.880589534382255
2,1, 1, 1, 0, 9,45.00,60.00,Tuesday
7,-8.9
8,4301.872675471619
9,1.0
10,478.00138373643099
11,1.0
12,478.00138373643099
13,4301.872675471619
14,8.222138278225435
15,19.188758160026013
16,9.677349401240008
17,-3.5008702725061768
18,7.147346806496971
2,1, 1, 1, 0,10, 0.00,15.00,Tuesday
7,-8.350000000000002
8,4859.302038077412
9,1.0
10,536.9185644770597
11,1.0
12,536.9185644770597
13,4859.302038077412
14,8.563417806667437
15,20.303384710086804
16,10.635542001638897
17,-2.839852799713924
18,7.429644375771029
2,1, 1, 1, 0,10,15.00,30.00,Tuesday
7,-7.800000000000001
8,5435.988910954507
9,1.0
10,598.0969199229219
11,1.0
12,598.0969199229219
13,5435.988910954507
14,8.935701866543772
15,21.55418998132531
16,11.61047724271043
17,-2.1777388678397644
18,7.561453647732962
2,1, 1, 1, 0,10,30.00,45.00,Tuesday
7,-7.25
8,5814.302192801117
9,1.0
10,637.6133352894237
11,1.0
12,637.6133352894237
13,5814.302192801117
14,9.187363517896176
15,21.610635072251318
16,12.306168526640136
17,-1.7079734530548195
18,7.816835803526042
2,1, 1, 1, 0,10,45.00,60.00,Tuesday
7,-6.7
8,6187.043120946611
9,1.0
10,676.6412284283772
11,1.0
12,676.6412284283772
13,6187.043120946611
14,9.431807310112252
15,21.76804771645071
16,12.943583659243018
17,-1.2438802440159407
18,8.005165141750675
2,1, 1, 1, 0,11, 0.00,15.00,Tuesday
7,-6.275
8,6553.002941257459
9,1.0
10,715.0112779846514
11,1.0
12,715.0112779846514
13,6553.002941257459
14,9.825217601217658
15,23.86745891140591
16,13.6484845139762
17,-0.5591703513765651
18,8.446306946828513
2,1, 1, 1, 0,11,15.00,30.00,Tuesday
7,-5.85
8,6910.348521561803
9,1.0
10,752.5077794605232
11,1.0
12,752.5077794605232
13,6910.348521561803
14,10.269920480003972
15,25.804605235164617
16,14.404955046521764
17,0.11478262288017049
18,8.862000197225573
2,1, 1, 1, 0,11,30.00,45.00,Tuesday
7,-5.425
8,6804.145982274665
9,1.0
10,742.5988714321785
11,1.0
12,742.5988714321785
13,6804.145982274665
14,10.5406988408053
15,25.656506430186736
16,14.640052819028483
17,0.42483724526374547
18,9.241047550599108
2,1, 1, 1, 0,11,45.00,60.00,Tuesday
7,-5.0
8,6652.394939440979
9,1.0
10,727.8169025450712
11,1.0
12,727.8169025450712
13,6652.394939440979
14,10.795618027485379
15,25.428116117933226
16,14.77587203403175
17,0.7038971967810426
18,9.573692572274059
2,1, 1, 1, 0,12, 0.00,15.00,Tuesday
7,-4.575
8,6391.429124859039
9,1.0
10,700.3759009170325
11,1.0
12,700.3759009170325
13,6391.429124859039
14,10.9772028578373
15,24.6860845816754
16,14.762007521255328
17,0.9310176695339578
18,9.858901589937603
2,1, 1, 1, 0,12,15.00,30.00,Tuesday
7,-4.15
8,6197.889213581408
9,1.0
10,681.6705029034473
11,1.0
12,681.6705029034473
13,6197.889213581408
14,11.146578407378219
15,24.35541264555185
16,14.798980854405045
17,1.2186853363303385
18,10.108174997931317
2,1, 1, 1, 0,12,30.00,45.00,Tuesday
7,-3.7249999999999998
8,5441.230537824202
9,1.0
10,602.01865277251
11,1.0
12,602.01865277251
13,5441.230537824202
14,11.090770801144427
15,21.32816695994326
16,14.158055106261373
17,1.0660148047733742
18,10.297293212979869
2,1, 1, 1, 0,12,45.00,60.00,Tuesday
7,-3.3
8,4443.921330169631
9,1.0
10,493.55004396206007
11,1.0
12,493.55004396206007
13,4443.921330169631
14,10.895906641421418
15,17.150187717142914
16,13.077656574881133
17,0.6767098389788089
18,10.39801132914179
2,1, 1, 1, 0,13, 0.00,15.00,Tuesday
7,-3.0249999999999996
8,3669.329009093425
9,1.0
10,412.335026418112
11,1.0
12,412.335026418112
13,3669.329009093425
14,10.762348512409267
15,14.306908973886248
16,12.204357625480953
17,0.4212051893147759
18,10.427852494498414
2,1, 1, 1, 0,13,15.00,30.00,Tuesday
7,-2.75
8,2687.445645058228
9,1.0
10,305.94037763660148
11,1.0
12,305.94037763660148
13,2687.445645058228
14,10.440662670929843
15,10.134357150510365
16,10.970065409196537
17,-0.04819371548910567
18,10.397348973836487
2,1, 1, 1, 0,13,30.00,45.00,Tuesday
7,-2.475
8,2453.5427419564059
9,1.0
10,281.0763483922329
11,1.0
12,281.0763483922329
13,2453.5427419564059
14,10.412176429887597
15,9.62272106467956
16,10.661950330785942
17,0.08647597505762406
18,10.348373593276156
2,1, 1, 1, 0,13,45.00,60.00,Tuesday
7,-2.2
8,2224.5123596062255
9,1.0
10,256.7721209415886
11,1.0
12,256.7721209415886
13,2224.5123596062255
14,10.375445444078759
15,9.016494996226431
16,10.436330010149505
17,0.24615780532928967
18,10.306812732057058
2,1, 1, 1, 0,14, 0.00,15.00,Tuesday
7,-1.9250000000000003
8,1817.2003545434168
9,1.0
10,210.73276284570657
11,1.0
12,210.73276284570657
13,1817.2003545434168
14,10.221167827000297
15,7.46976391587691
16,9.893000155954838
17,0.18963214999462253
18,10.269426833678569
2,1, 1, 1, 0,14,15.00,30.00,Tuesday
7,-1.6500000000000002
8,1614.260498024205
9,1.0
10,189.38488290342594
11,1.0
12,189.38488290342594
13,1614.260498024205
14,10.183320722236385
15,7.066997906503745
16,9.650957835744919
17,0.33732827213333396
18,10.235666572851283
2,1, 1, 1, 0,14,30.00,45.00,Tuesday
7,-1.375
8,1539.5476742548124
9,1.0
10,179.3940297802914
11,1.0
12,179.3940297802914
13,1539.5476742548124
14,10.17098632407477
15,7.191063800297545
16,9.602422427467218
17,0.5800134530956598
18,10.206782536244848
2,1, 1, 1, 0,14,45.00,60.00,Tuesday
7,-1.1
8,1463.9812974434895
9,1.0
10,169.43349014176136
11,1.0
12,169.43349014176136
13,1463.9812974434895
14,10.154827728444916
15,7.291359969250572
16,9.546883232893265
17,0.8209782152698608
18,10.18216182577413
2,1, 1, 1, 0,15, 0.00,15.00,Tuesday
7,-1.1
8,1540.9321607437196
9,1.0
10,178.15692317953907
11,1.0
12,178.15692317953907
13,1540.9321607437196
14,10.218976742439028
15,8.110569575265897
16,9.669291200363773
17,0.9535547375389797
18,10.16582352300622
2,1, 1, 1, 0,15,15.00,30.00,Tuesday
7,-1.1
8,1447.6634452633662
9,1.0
10,166.40516310952945
11,1.0
12,166.40516310952945
13,1447.6634452633662
14,10.164945308878759
15,7.7484977766658009
16,9.539425141658228
17,0.9090197943097564
18,10.15223388169964
2,1, 1, 1, 0,15,30.00,45.00,Tuesday
7,-1.1
8,1220.6438058838658
9,1.0
10,140.8967369711617
11,1.0
12,140.8967369711617
13,1220.6438058838658
14,10.03250271771759
15,6.539755573964975
16,9.180403283596093
17,0.7121658737459029
18,10.130946530097756
2,1, 1, 1, 0,15,45.00,60.00,Tuesday
7,-1.1
8,1004.4903719218936
9,1.0
10,116.57355796743004
11,1.0
12,116.57355796743004
13,1004.4903719218936
14,9.922385908329274
15,5.338475127965631
16,8.821082609872179
17,0.5066443345334051
18,10.088697600834589
2,1, 1, 1, 0,16, 0.00,15.00,Tuesday
7,-1.1
8,797.2208701522413
9,1.0
10,93.14939272689483
11,1.0
12,93.14939272689483
13,797.2208701522413
14,9.80909345049446
15,4.289346794827349
16,8.502625902185628
17,0.38589393451388789
18,10.023717061158202
2,1, 1, 1, 0,16,15.00,30.00,Tuesday
7,-1.1
8,494.9161607404077
9,1.0
10,57.94047897402063
11,1.0
12,57.94047897402063
13,494.9161607404077
14,9.602345072790169
15,2.1688082399317767
16,8.010714541910716
17,0.12605291314667967
18,9.932506468018432
2,1, 1, 1, 0,16,30.00,45.00,Tuesday
7,-1.1
8,383.7216918057544
9,1.0
10,45.38251793443488
11,1.0
12,45.38251793443488
13,383.7216918057544
14,9.518147570708964
15,1.5623823736964647
16,7.790307845005941
17,0.09606198889144935
18,9.831007456600697
2,1, 1, 1, 0,16,45.00,60.00,Tuesday
7,-1.1
8,267.86316256322928
9,1.0
10,32.02625108222755
11,1.0
12,32.02625108222755
13,267.86316256322928
14,9.394844703018233
15,0.7040234120659652
16,7.586814320047324
17,0.06464272618222822
18,9.732087258068049
2,1, 1, 1, 0,17, 0.00,15.00,Tuesday
7,-1.1
8,146.9225694966839
9,1.0
10,17.762198626050539
11,1.0
12,17.762198626050539
13,146.9225694966839
14,9.247734477532675
15,-0.5405282301882428
16,7.331822317707008
17,-0.07632420775081528
18,9.633968096347065
2,1, 1, 1, 0,17,15.00,30.00,Tuesday
7,-1.1
8,0.0
9,0.0
10,0.0
11,0.0
12,0.0
13,0.0
14,9.05057819225463
15,-2.3746232818915078
16,6.998754892062323
17,-0.3399331141660582
18,9.523424204753898
2,1, 1, 1, 0,17,30.00,45.00,Tuesday
7,-1.1
8,0.0
9,0.0
10,0.0
11,0.0
12,0.0
13,0.0
14,8.98880684334876
15,-2.5073794556966888
16,6.911790512259586
17,-0.31081635765269768
18,9.415622705187565
2,1, 1, 1, 0,17,45.00,60.00,Tuesday
7,-1.1
8,0.0
9,0.0
10,0.0
11,0.0
12,0.0
13,0.0
14,8.910948905903905
15,-2.692844528240457
16,6.866303180558816
17,-0.266857548872224
18,9.32469467138344
2,1, 1, 1, 0,18, 0.00,15.00,Tuesday
7,-1.25
8,0.0
9,0.0
10,0.0
11,0.0
12,0.0
13,0.0
14,8.844588918179675
15,-2.841406456240053
16,6.771388109739746
17,-0.4096709147987667
18,9.251062278138936
2,1, 1, 1, 0,18,15.00,30.00,Tuesday
7,-1.4
8,0.0
9,0.0
10,0.0
11,0.0
12,0.0
13,0.0
14,8.783841368118692
15,-2.9938725190119594
16,6.69306590239438
17,-0.5376440664792881
18,9.189077238232985
2,1, 1, 1, 0,18,30.00,45.00,Tuesday
7,-1.5499999999999999
8,0.0
9,0.0
10,0.0
11,0.0
12,0.0
13,0.0
14,8.727273678059888
15,-3.1459619196389609
16,6.616955116656982
17,-0.6696772225362793
18,9.13321596755723
2,1, 1, 1, 0,18,45.00,60.00,Tuesday
7,-1.7
8,0.0
9,0.0
10,0.0
11,0.0
12,0.0
13,0.0
14,8.67264642745984
15,-3.2982196979825084
16,6.543780673374613
17,-0.8009559580995074
18,9.080134662216821
2,1, 1, 1, 0,19, 0.00,15.00,Tuesday
7,-1.825
8,0.0
9,0.0
10,0.0
11,0.0
12,0.0
13,0.0
14,8.641781163404684
15,-3.1594604042443206
16,6.454066612873589
17,-0.9876243945878969
18,9.03166959746031
2,1, 1, 1, 0,19,15.00,30.00,Tuesday
7,-1.9500000000000002
8,0.0
9,0.0
10,0.0
11,0.0
12,0.0
13,0.0
14,8.60963419542555
15,-3.1009884041964379
16,6.380570549023446
17,-1.158651644123097
18,8.98960052445054
2,1, 1, 1, 0,19,30.00,45.00,Tuesday
7,-2.075
8,0.0
9,0.0
10,0.0
11,0.0
12,0.0
13,0.0
14,8.573410280930715
15,-3.177058961839902
16,6.325007079688248
17,-1.2821135052950013
18,8.952593773278295
2,1, 1, 1, 0,19,45.00,60.00,Tuesday
7,-2.2
8,0.0
9,0.0
10,0.0
11,0.0
12,0.0
13,0.0
14,8.53986144657045
15,-3.1621095258843359
16,6.25598975337283
17,-1.4442682446228333
18,8.917594948333845
2,1, 1, 1, 0,20, 0.00,15.00,Tuesday
7,-1.9250000000000003
8,0.0
9,0.0
10,0.0
11,0.0
12,0.0
13,0.0
14,8.522022305598027
15,-2.8627407845132919
16,6.289621360365857
17,-1.244387717160123
18,8.885257264194705
2,1, 1, 1, 0,20,15.00,30.00,Tuesday
7,-1.6500000000000002
8,0.0
9,0.0
10,0.0
11,0.0
12,0.0
13,0.0
14,8.504603268762845
15,-2.56618984499823
16,6.321010969920053
17,-1.0329419019808484
18,8.856194977085809
2,1, 1, 1, 0,20,30.00,45.00,Tuesday
7,-1.375
8,0.0
9,0.0
10,0.0
11,0.0
12,0.0
13,0.0
14,8.489017714973978
15,-2.2708400510737878
16,6.354039551745018
17,-0.8190717168055244
18,8.830019126014906
2,1, 1, 1, 0,20,45.00,60.00,Tuesday
7,-1.1
8,0.0
9,0.0
10,0.0
11,0.0
12,0.0
13,0.0
14,8.475034692676637
15,-1.9766791369570947
16,6.389155857530795
17,-0.6029211772400913
18,8.80600520432939
2,1, 1, 1, 0,21, 0.00,15.00,Tuesday
7,-1.25
8,0.0
9,0.0
10,0.0
11,0.0
12,0.0
13,0.0
14,8.42183537833786
15,-2.250375277056257
16,6.350636550849117
17,-0.6621114709942049
18,8.777439522810509
2,1, 1, 1, 0,21,15.00,30.00,Tuesday
7,-1.4
8,0.0
9,0.0
10,0.0
11,0.0
12,0.0
13,0.0
14,8.369392095674744
15,-2.462979007159551
16,6.2951083682543189
17,-0.7504854553279756
18,8.739733420302868
2,1, 1, 1, 0,21,30.00,45.00,Tuesday
7,-1.5499999999999999
8,0.0
9,0.0
10,0.0
11,0.0
12,0.0
13,0.0
14,8.304119616131504
15,-2.7973969619874818
16,6.249322305917985
17,-0.7974588620106715
18,8.692244008496495
2,1, 1, 1, 0,21,45.00,60.00,Tuesday
7,-1.7
8,0.0
9,0.0
10,0.0
11,0.0
12,0.0
13,0.0
14,8.233586933799149
15,-3.237870906887207
16,6.20433930972564
17,-0.8128085052793495
18,8.637337227755192
2,1, 1, 1, 0,22, 0.00,15.00,Tuesday
7,-1.5499999999999999
8,0.0
9,0.0
10,0.0
11,0.0
12,0.0
13,0.0
14,8.228649210479814
15,-2.7637666757188366
16,6.159324795659927
17,-0.8123963683468674
18,8.588265801031634
2,1, 1, 1, 0,22,15.00,30.00,Tuesday
7,-1.4
8,0.0
9,0.0
10,0.0
11,0.0
12,0.0
13,0.0
14,8.212393458057436
15,-2.4427587578598017
16,6.154509777798239
17,-0.7799623695964328
18,8.551927380039599
2,1, 1, 1, 0,22,30.00,45.00,Tuesday
7,-1.25
8,0.0
9,0.0
10,0.0
11,0.0
12,0.0
13,0.0
14,8.196628054591655
15,-2.2266929042917158
16,6.15465523244211
17,-0.6897286716539952
18,8.525866208679388
2,1, 1, 1, 0,22,45.00,60.00,Tuesday
7,-1.1
8,0.0
9,0.0
10,0.0
11,0.0
12,0.0
13,0.0
14,8.184666690232622
15,-1.9514851130096143
16,6.153825814257971
17,-0.6234511414509143
18,8.504830137734596
2,1, 1, 1, 0,23, 0.00,15.00,Tuesday
7,-1.25
8,0.0
9,0.0
10,0.0
11,0.0
12,0.0
13,0.0
14,8.130666404530082
15,-2.2547388740516149
16,6.059965699877921
17,-0.9011272701421831
18,8.47843627350014
2,1, 1, 1, 0,23,15.00,30.00,Tuesday
7,-1.4
8,0.0
9,0.0
10,0.0
11,0.0
12,0.0
13,0.0
14,8.078835809753559
15,-2.5594330052016285
16,5.954281717798153
17,-1.1925609271787608
18,8.441811417517382
2,1, 1, 1, 0,23,30.00,45.00,Tuesday
7,-1.5499999999999999
8,0.0
9,0.0
10,0.0
11,0.0
12,0.0
13,0.0
14,8.022188089407598
15,-2.864772410719587
16,5.846581770504713
17,-1.4855383291766203
18,8.396324424130114
2,1, 1, 1, 0,23,45.00,60.00,Tuesday
7,-1.7
8,0.0
9,0.0
10,0.0
11,0.0
12,0.0
13,0.0
14,7.961640258531849
15,-3.1704563243453598
16,5.734704649717514
17,-1.7805274229128827
18,8.345050951601796
2,1, 1, 1, 0,24, 0.00,15.00,Tuesday
7,-1.7
8,0.0
9,0.0
10,0.0
11,0.0
12,0.0
13,0.0
14,7.916737889199798
15,-3.22468850261115
16,5.678863247299319
17,-1.8486290271799817
18,8.29358636488818
2,1, 1, 1, 0,24,15.00,30.00,Tuesday
7,-1.7
8,0.0
9,0.0
10,0.0
11,0.0
12,0.0
13,0.0
14,7.869823990401625
15,-3.2794737471383295
16,5.627930931859794
17,-1.9120383862583595
18,8.244818775000932
2,1, 1, 1, 0,24,30.00,45.00,Tuesday
7,-1.7
8,0.0
9,0.0
10,0.0
11,0.0
12,0.0
13,0.0
14,7.824081446339638
15,-3.334151362040809
16,5.576866691352279
17,-1.9751689598471672
18,8.198618691858
2,1, 1, 1, 0,24,45.00,60.00,Tuesday
7,-1.7
8,0.0
9,0.0
10,0.0
11,0.0
12,0.0
13,0.0
14,7.779193214299254
15,-3.3888328370871809
16,5.526774316800015
17,-2.0379228026241664
18,8.153900635211598
End of Data
 Number of Records Written=        1152
